LAMMPS data file via write_data, version 29 Oct 2020, timestep = 0

72 atoms
41 atom types
72 bonds
39 bond types
132 angles
71 angle types
180 dihedrals
102 dihedral types
40 impropers
20 improper types

-5.647281456291258 5.647281456291258 xlo xhi
-6.082158431686338 6.082158431686337 ylo yhi
-2.7580461092218442 2.7580461092218442 zlo zhi

Masses

1 15.999
2 12.011
3 12.011
4 15.999
5 12.011
6 15.999
7 12.011
8 12.011
9 12.011
10 15.999
11 15.999
12 12.011
13 12.011
14 15.999
15 12.011
16 12.011
17 1.008
18 1.008
19 1.008
20 1.008
21 1.008
22 1.008
23 1.008
24 1.008
25 1.008
26 1.008
27 1.008
28 1.008
29 1.008
30 1.008
31 1.008
32 1.008
33 1.008
34 1.008
35 1.008
36 1.008
37 12.011
38 12.011
39 15.999
40 15.999
41 1.008

Pair Coeffs # lj/cut/coul/cut

1 0.17 3.12
2 0.066 3.5
3 0.066 3.5
4 0.17 3.12
5 0.066 3.5
6 0.14 2.9
7 0.066 3.5
8 0.066 3.5
9 0.066 3.5
10 0.17 3.12
11 0.14 2.9
12 0.066 3.5
13 0.066 3.5
14 0.14 2.9
15 0.066 3.5
16 0.066 3.5
17 0.03 2.5
18 0.03 2.5
19 0.03 2.5
20 0.03 2.5
21 0.03 2.5
22 0.03 2.5
23 0.03 2.5
24 0.03 2.5
25 0.03 2.5
26 0.03 2.5
27 0.03 2.5
28 0.03 2.5
29 0.03 2.5
30 0.03 2.5
31 0.03 2.5
32 0.03 2.5
33 0.03 2.5
34 0.03 2.5
35 0.03 2.5
36 0.03 2.5
37 0.066 3.5
38 0.066 3.5
39 0.14 2.9
40 0.102 3.188
41 0 0

Bond Coeffs # harmonic

1 320 1.41
2 268 1.529
3 320 1.41
4 268 1.529
5 320 1.41
6 320 1.41
7 268 1.529
8 268 1.529
9 320 1.38
10 320 1.38
11 268 1.529
12 268 1.529
13 320 1.41
14 320 1.41
15 268 1.529
16 553 0.945
17 340 1.09
18 340 1.09
19 553 0.945
20 340 1.09
21 340 1.09
22 340 1.09
23 340 1.09
24 340 1.09
25 340 1.09
26 340 1.09
27 553 0.945
28 340 1.09
29 340 1.09
30 340 1.09
31 340 1.09
32 340 1.09
33 340 1.09
34 340 1.09
35 340 1.09
36 320 1.41
37 320 1.41
38 450 0.9572
39 320 1.38

Angle Coeffs # harmonic

1 50 109.5
2 50 109.5
3 58.35 112.7
4 50 109.5
5 60 109.5
6 50 109.5
7 58.35 112.7
8 50 109.5
9 50 109.5
10 50 109.5
11 58.35 112.7
12 50 109.5
13 60 109.5
14 50 109.5
15 55 108.5
16 35 109.5
17 37.5 110.7
18 55 108.5
19 37.5 110.7
20 35 109.5
21 35 109.5
22 37.5 110.7
23 37.5 110.7
24 37.5 110.7
25 37.5 110.7
26 55 108.5
27 37.5 110.7
28 37.5 110.7
29 37.5 110.7
30 35 109.5
31 35 109.5
32 37.5 110.7
33 37.5 110.7
34 37.5 110.7
35 37.5 110.7
36 37.5 110.7
37 37.5 110.7
38 33 107.8
39 35 109.5
40 33 107.8
41 35 109.5
42 60 109.5
43 33 107.8
44 35 109.5
45 33 107.8
46 33 107.8
47 50 109.5
48 37.5 110.7
49 35 109.5
50 37.5 110.7
51 33 107.8
52 50 109.5
53 35 109.5
54 58.35 112.7
55 37.5 110.7
56 35 109.5
57 92.6 111.55
58 33 107.8
59 50 109.5
60 33 107.8
61 33 107.8
62 37.5 110.7
63 50 109.5
64 37.5 110.7
65 37.5 110.7
66 35 109.5
67 60 109.5
68 60 109.5
69 50 109.5
70 35 109.5
71 55 104.52

Dihedral Coeffs # opls

1 9.508 0 0 0
2 1.711 -0.5 0.663 0
3 0.65 -0.25 0.67 0
4 0.65 -0.25 0.67 0
5 1.711 -0.5 0.663 0
6 1.711 -0.5 0.663 0
7 0.65 -0.25 0.67 0
8 0.65 -0.25 0.67 0
9 -0.356 -0.174 0.492 0
10 -0.356 -0.174 0.492 0
11 0 0 0.468 0
12 -0.356 -0.174 0.492 0
13 0 0 0.468 0
14 1.711 -0.5 0.663 0
15 0 0 0.468 0
16 0 0 0.3 0
17 0 0 0.468 0
18 0 0 0.468 0
19 0 0 0.468 0
20 0 0 0.3 0
21 0 0 0.76 0
22 0 0 0.3 0
23 0 0 0.3 0
24 0.65 -0.25 0.67 0
25 0.65 -0.25 0.67 0
26 1.3 -0.2 0.2 0
27 4.319 0 0 0
28 0 0 0.3 0
29 0 0 0.3 0
30 -1.552 0 0 0
31 0 0 0.468 0
32 0 0 0.468 0
33 0 0 0.3 0
34 0 0 0.468 0
35 0 0 0.76 0
36 0 0 0.468 0
37 1.3 -0.2 0.2 0
38 0 0 0.3 0
39 0 0 0.3 0
40 0 0 0.468 0
41 0 0 0.3 0
42 0 0 0.76 0
43 0.65 -0.25 0.67 0
44 4.319 0 0 0
45 0 0 0.76 0
46 0 0 0.3 0
47 0 0 0.3 0
48 0 0 0.3 0
49 1.3 -0.2 0.2 0
50 0 0 0.76 0
51 0 0 0.76 0
52 -0.55 0 0 0
53 -0.356 -0.174 0.492 0
54 0 0 0.3 0
55 0 0 0.3 0
56 0 0 0.468 0
57 0 0 0.352 0
58 0 0 0.76 0
59 0 0 0.468 0
60 0 0 0.352 0
61 0.65 -0.25 0.67 0
62 -1.552 0 0 0
63 0 0 0.76 0
64 0 0 0.3 0
65 0 0 0.468 0
66 0 0 0.3 0
67 0 0 0.3 0
68 -0.375 -1.358 0.004 0
69 0 0 0.3 0
70 1.711 -0.5 0.663 0
71 0 0 0.468 0
72 -1.552 0 0 0
73 0 0 0.3 0
74 0 0 0.3 0
75 -1.552 0 0 0
76 0 0 0.468 0
77 0 0 0.3 0
78 0 0 0.3 0
79 0 0 0.76 0
80 -0.55 0 0 0
81 0 0 0.3 0
82 0 0 0.3 0
83 0 0 0.352 0
84 -0.356 -0.174 0.492 0
85 0 0 0.468 0
86 0 0 0.3 0
87 0 0 0.468 0
88 4.319 0 0 0
89 -1.257 -1.806 0.003 0
90 0 0 0.3 0
91 0.65 -0.25 0.67 0
92 -0.375 -1.358 0.004 0
93 0 0 0.76 0
94 0.65 -0.25 0.67 0
95 0.65 -0.25 0.67 0
96 0 0 0.76 0
97 4.319 0 0 0
98 1.711 -0.5 0.663 0
99 0 0 0.468 0
100 -0.55 0 0 0
101 1.711 -0.5 0.663 0
102 0 0 0.468 0

Improper Coeffs # cvff

1 0 -1 2
2 0 -1 2
3 0 -1 2
4 0 -1 2
5 0 -1 2
6 0 -1 2
7 0 -1 2
8 0 -1 2
9 0 -1 2
10 0 -1 2
11 0 -1 2
12 0 -1 2
13 0 -1 2
14 0 -1 2
15 0 -1 2
16 0 -1 2
17 0 -1 2
18 0 -1 2
19 0 -1 2
20 0 -1 2

Atoms # full

1 1 1 -0.6817 -5.275392 -0.5486900000000003 0.20660649999999997 0 0 0
2 1 2 0.114 -3.872884 -0.6369370000000004 -0.10308149999999999 0 0 0
3 1 3 0.0994 -3.2533999999999996 -1.8526870000000004 0.5846994999999999 0 0 0
4 1 4 -0.6923 -3.932336 -3.0137940000000003 0.05892349999999996 0 0 0
5 1 5 -0.0333 -1.7274789999999998 -1.9178760000000004 0.3586025 0 0 0
6 1 6 -0.405 -1.08678 -2.887166 1.2289805 0 0 0
7 1 7 0.0059 -1.4390899999999993 -4.243358000000001 0.9617365 0 0 0
8 1 8 -0.2477 -2.7327139999999996 -4.579643000000001 1.6782674999999998 0 0 0
9 1 9 0.2482 -1.093305 -0.5414550000000005 0.6742144999999999 0 0 0
10 1 10 -0.6054 0.25515100000000057 -0.5486900000000003 0.20660649999999997 0 0 0
11 1 11 -0.3168 -1.7471459999999999 0.5534409999999996 0.05758449999999998 0 0 0
12 1 12 0.076 -3.1561009999999996 0.6644809999999997 0.2728285 0 0 0
13 1 13 -0.0145 -3.6071079999999998 1.7719429999999996 -0.7019095 0 0 0
14 1 14 -0.3661 -2.8107699999999998 2.947131 -0.5245915 0 0 0
15 1 15 0.0105 -3.29391 4.0273319999999995 -1.3196725 0 0 0
16 1 16 -0.2446 -2.4110979999999995 5.235592 -1.0845615 0 0 0
17 1 17 0.4161 -5.646152 0.09369899999999953 -0.4288305 0 0 0
18 1 18 0.1151 -3.815403 -0.8006950000000004 -1.1854345 0 0 0
19 1 19 0.1524 -3.4634549999999997 -1.8337820000000005 1.6604284999999999 0 0 0
20 1 20 0.411 -3.4382119999999996 -3.3080810000000005 -0.7271164999999999 0 0 0
21 1 21 0.1259 -1.5145879999999998 -2.1828220000000003 -0.6858275 0 0 0
22 1 22 0.0886 -0.6371579999999994 -4.908462000000001 1.2973725 0 0 0
23 1 23 0.0886 -1.616727 -4.379449000000001 -0.10635250000000002 0 0 0
24 1 24 0.0982 -2.6249849999999997 -4.4568010000000005 2.7574945 0 0 0
25 1 25 0.0982 -3.0322889999999996 -5.6109420000000005 1.4620214999999999 0 0 0
26 1 26 0.0982 -3.5321749999999996 -3.90539 1.3548004999999999 0 0 0
27 1 27 0.1436 -1.0282099999999996 -0.4010780000000005 1.7600985 0 0 0
28 1 28 0.4398 0.4992850000000004 0.3938429999999995 0.15027850000000004 0 0 0
29 1 29 0.1655 -3.423987 0.9833279999999995 1.2878945 0 0 0
30 1 30 0.0885 -4.6617619999999995 2.024066999999999 -0.5747075 0 0 0
31 1 31 0.0885 -3.4705399999999997 1.4252179999999994 -1.7333725 0 0 0
32 1 32 0.0744 -4.326407 4.264778 -1.0389825 0 0 0
33 1 33 0.0744 -3.26477 3.7434419999999995 -2.3774945 0 0 0
34 1 34 0.0955 -2.4384719999999995 5.531472999999999 -0.030728499999999992 0 0 0
35 1 35 0.0955 -2.740194 6.080941999999999 -1.6961055 0 0 0
36 1 36 0.0955 -1.36829 5.005198999999999 -1.3257585 0 0 0
37 2 1 -0.6817 -0.12852500000000067 -1.0186900000000003 -0.17339350000000003 0 0 0
38 2 2 0.114 1.2739829999999994 -1.1069370000000003 -0.4830815 0 0 0
39 2 3 0.0994 1.8934670000000002 -2.3226870000000006 0.20469949999999998 0 0 0
40 2 4 -0.6923 1.214531 -3.4837940000000005 -0.32107650000000004 0 0 0
41 2 5 -0.0333 3.4193879999999988 -2.3878760000000003 -0.021397500000000014 0 0 0
42 2 6 -0.405 4.060087 -3.3571660000000003 0.8489804999999999 0 0 0
43 2 7 0.0059 3.707777000000001 -4.713358 0.5817365000000001 0 0 0
44 2 8 -0.2477 2.4141529999999998 -5.0496430000000005 1.2982675 0 0 0
45 2 9 0.2482 4.053562 -1.0114550000000004 0.2942145 0 0 0
46 2 10 -0.6054 5.402017999999999 -1.0186900000000003 -0.17339350000000003 0 0 0
47 2 11 -0.3168 3.3997210000000004 0.08344099999999965 -0.3224155 0 0 0
48 2 12 0.076 1.9907659999999998 0.19448099999999968 -0.10717150000000003 0 0 0
49 2 13 -0.0145 1.5397589999999992 1.3019429999999999 -1.0819095 0 0 0
50 2 14 -0.3661 2.3360969999999996 2.4771310000000004 -0.9045915 0 0 0
51 2 15 0.0105 1.852956999999999 3.557332 -1.6996725 0 0 0
52 2 16 -0.2446 2.7357690000000003 4.765592 -1.4645615 0 0 0
53 2 17 0.4161 -0.4992850000000004 -0.37630100000000044 -0.8088305 0 0 0
54 2 18 0.1151 1.3314639999999995 -1.2706950000000004 -1.5654345 0 0 0
55 2 19 0.1524 1.6834119999999997 -2.3037820000000004 1.2804285 0 0 0
56 2 20 0.411 1.7086549999999994 -3.7780810000000007 -1.1071165 0 0 0
57 2 21 0.1259 3.6322789999999996 -2.652822 -1.0658275 0 0 0
58 2 22 0.0886 4.509709 -5.378462000000001 0.9173725000000001 0 0 0
59 2 23 0.0886 3.5301400000000003 -4.849449000000001 -0.4863525 0 0 0
60 2 24 0.0982 2.521881999999999 -4.926801 2.3774945 0 0 0
61 2 25 0.0982 2.114577999999999 -6.080942 1.0820215 0 0 0
62 2 26 0.0982 1.614691999999999 -4.37539 0.9748005 0 0 0
63 2 27 0.1436 4.118657 -0.8710780000000005 1.3800985000000001 0 0 0
64 2 28 0.4398 5.646152 -0.07615700000000047 -0.22972149999999997 0 0 0
65 2 29 0.1655 1.722879999999999 0.5133279999999998 0.9078945 0 0 0
66 2 30 0.0885 0.4851049999999999 1.5540669999999992 -0.9547075 0 0 0
67 2 31 0.0885 1.6763269999999997 0.9552179999999997 -2.1133724999999997 0 0 0
68 2 32 0.0744 0.8204599999999997 3.7947780000000004 -1.4189825 0 0 0
69 2 33 0.0744 1.882096999999999 3.2734419999999997 -2.7574945 0 0 0
70 2 34 0.0955 2.7083950000000003 5.0614729999999994 -0.4107285 0 0 0
71 2 35 0.0955 2.4066729999999987 5.610942 -2.0761054999999997 0 0 0
72 2 36 0.0955 3.7785769999999994 4.5351989999999995 -1.7057585000000002 0 0 0

Velocities

1 0.0 0.0 0.0
2 0.0 0.0 0.0
3 0.0 0.0 0.0
4 0.0 0.0 0.0
5 0.0 0.0 0.0
6 0.0 0.0 0.0
7 0.0 0.0 0.0
8 0.0 0.0 0.0
9 0.0 0.0 0.0
10 0.0 0.0 0.0
11 0.0 0.0 0.0
12 0.0 0.0 0.0
13 0.0 0.0 0.0
14 0.0 0.0 0.0
15 0.0 0.0 0.0
16 0.0 0.0 0.0
17 0.0 0.0 0.0
18 0.0 0.0 0.0
19 0.0 0.0 0.0
20 0.0 0.0 0.0
21 0.0 0.0 0.0
22 0.0 0.0 0.0
23 0.0 0.0 0.0
24 0.0 0.0 0.0
25 0.0 0.0 0.0
26 0.0 0.0 0.0
27 0.0 0.0 0.0
28 0.0 0.0 0.0
29 0.0 0.0 0.0
30 0.0 0.0 0.0
31 0.0 0.0 0.0
32 0.0 0.0 0.0
33 0.0 0.0 0.0
34 0.0 0.0 0.0
35 0.0 0.0 0.0
36 0.0 0.0 0.0
37 0.0 0.0 0.0
38 0.0 0.0 0.0
39 0.0 0.0 0.0
40 0.0 0.0 0.0
41 0.0 0.0 0.0
42 0.0 0.0 0.0
43 0.0 0.0 0.0
44 0.0 0.0 0.0
45 0.0 0.0 0.0
46 0.0 0.0 0.0
47 0.0 0.0 0.0
48 0.0 0.0 0.0
49 0.0 0.0 0.0
50 0.0 0.0 0.0
51 0.0 0.0 0.0
52 0.0 0.0 0.0
53 0.0 0.0 0.0
54 0.0 0.0 0.0
55 0.0 0.0 0.0
56 0.0 0.0 0.0
57 0.0 0.0 0.0
58 0.0 0.0 0.0
59 0.0 0.0 0.0
60 0.0 0.0 0.0
61 0.0 0.0 0.0
62 0.0 0.0 0.0
63 0.0 0.0 0.0
64 0.0 0.0 0.0
65 0.0 0.0 0.0
66 0.0 0.0 0.0
67 0.0 0.0 0.0
68 0.0 0.0 0.0
69 0.0 0.0 0.0
70 0.0 0.0 0.0
71 0.0 0.0 0.0
72 0.0 0.0 0.0

Bonds

1 1 2 1
2 2 3 2
3 3 4 3
4 4 5 3
5 5 6 5
6 6 7 6
7 7 8 7
8 8 9 5
9 9 10 9
10 10 11 9
11 11 12 2
12 36 12 11
13 12 13 12
14 13 14 13
15 14 15 14
16 15 16 15
17 16 17 1
18 17 18 2
19 18 19 3
20 19 20 4
21 20 21 5
22 21 22 7
23 22 23 7
24 23 24 8
25 24 25 8
26 25 26 8
27 26 27 9
28 27 28 10
29 28 29 12
30 29 30 13
31 30 31 13
32 31 32 15
33 32 33 15
34 33 34 16
35 34 35 16
36 35 36 16
37 1 38 37
38 2 39 38
39 3 40 39
40 4 41 39
41 5 42 41
42 6 43 42
43 7 44 43
44 8 45 41
45 9 46 45
46 10 47 45
47 11 48 38
48 36 48 47
49 12 49 48
50 13 50 49
51 14 51 50
52 15 52 51
53 16 53 37
54 17 54 38
55 18 55 39
56 19 56 40
57 20 57 41
58 21 58 43
59 22 59 43
60 23 60 44
61 24 61 44
62 25 62 44
63 26 63 45
64 27 64 46
65 28 65 48
66 29 66 49
67 30 67 49
68 31 68 51
69 32 69 51
70 33 70 52
71 34 71 52
72 35 72 52

Angles

1 15 2 1 17
2 1 1 2 3
3 10 1 2 12
4 16 1 2 18
5 36 12 2 18
6 37 3 2 18
7 54 3 2 12
8 2 2 3 4
9 3 2 3 5
10 17 2 3 19
11 35 5 3 19
12 44 4 3 19
13 47 4 3 5
14 18 3 4 20
15 4 3 5 6
16 7 3 5 9
17 19 3 5 21
18 48 9 5 21
19 56 6 5 21
20 59 6 5 9
21 5 5 6 7
22 6 6 7 8
23 20 6 7 22
24 21 6 7 23
25 43 22 7 23
26 50 8 7 23
27 55 8 7 22
28 22 7 8 24
29 23 7 8 25
30 24 7 8 26
31 38 24 8 26
32 46 25 8 26
33 60 24 8 25
34 8 5 9 10
35 9 5 9 11
36 25 5 9 27
37 41 11 9 27
38 57 10 9 11
39 66 10 9 27
40 26 9 10 28
41 42 9 11 12
42 11 2 12 13
43 27 2 12 29
44 39 11 12 29
45 52 2 12 11
46 63 11 12 13
47 65 13 12 29
48 12 12 13 14
49 28 12 13 30
50 29 12 13 31
51 49 14 13 30
52 51 30 13 31
53 53 14 13 31
54 13 13 14 15
55 14 14 15 16
56 30 14 15 32
57 31 14 15 33
58 40 32 15 33
59 62 16 15 32
60 64 16 15 33
61 32 15 16 34
62 33 15 16 35
63 34 15 16 36
64 45 34 16 35
65 58 35 16 36
66 61 34 16 36
67 15 38 37 53
68 1 37 38 39
69 10 37 38 48
70 16 37 38 54
71 36 48 38 54
72 37 39 38 54
73 54 39 38 48
74 2 38 39 40
75 3 38 39 41
76 17 38 39 55
77 35 41 39 55
78 44 40 39 55
79 47 40 39 41
80 18 39 40 56
81 4 39 41 42
82 7 39 41 45
83 19 39 41 57
84 48 45 41 57
85 56 42 41 57
86 59 42 41 45
87 5 41 42 43
88 6 42 43 44
89 20 42 43 58
90 21 42 43 59
91 43 58 43 59
92 50 44 43 59
93 55 44 43 58
94 22 43 44 60
95 23 43 44 61
96 24 43 44 62
97 38 60 44 62
98 46 61 44 62
99 60 60 44 61
100 8 41 45 46
101 9 41 45 47
102 25 41 45 63
103 41 47 45 63
104 57 46 45 47
105 66 46 45 63
106 26 45 46 64
107 42 45 47 48
108 11 38 48 49
109 27 38 48 65
110 39 47 48 65
111 52 38 48 47
112 63 47 48 49
113 65 49 48 65
114 12 48 49 50
115 28 48 49 66
116 29 48 49 67
117 49 50 49 66
118 51 66 49 67
119 53 50 49 67
120 13 49 50 51
121 14 50 51 52
122 30 50 51 68
123 31 50 51 69
124 40 68 51 69
125 62 52 51 68
126 64 52 51 69
127 32 51 52 70
128 33 51 52 71
129 34 51 52 72
130 45 70 52 71
131 58 71 52 72
132 61 70 52 72

Dihedrals

1 9 17 1 2 3
2 84 17 1 2 12
3 26 12 2 3 5
4 57 18 2 1 17
5 62 12 2 3 4
6 64 18 2 12 13
7 65 18 2 12 11
8 78 18 2 3 5
9 87 18 2 3 4
10 1 4 3 2 1
11 19 19 3 5 6
12 36 19 3 2 1
13 41 19 3 5 9
14 75 5 3 2 1
15 77 19 3 2 12
16 81 19 3 2 18
17 10 20 4 3 2
18 53 20 4 3 5
19 83 20 4 3 19
20 2 6 5 3 2
21 18 21 5 3 4
22 23 21 5 3 2
23 27 6 5 3 4
24 30 9 5 3 4
25 32 21 5 9 10
26 49 9 5 3 2
27 51 21 5 6 7
28 59 21 5 9 11
29 61 9 5 6 7
30 86 21 5 3 19
31 3 7 6 5 3
32 4 8 7 6 5
33 45 22 7 6 5
34 63 23 7 6 5
35 11 24 8 7 6
36 16 25 8 7 22
37 22 24 8 7 22
38 31 25 8 7 6
39 38 25 8 7 23
40 39 26 8 7 22
41 69 24 8 7 23
42 71 26 8 7 6
43 74 26 8 7 23
44 5 10 9 5 3
45 14 11 9 5 3
46 33 27 9 5 21
47 44 10 9 5 6
48 58 27 9 11 12
49 73 27 9 5 3
50 80 11 9 5 6
51 85 27 9 5 6
52 12 28 10 9 5
53 60 28 10 9 27
54 89 28 10 9 11
55 24 12 11 9 5
56 25 9 11 12 2
57 68 12 11 9 10
58 15 29 12 13 14
59 21 29 12 11 9
60 29 29 12 2 3
61 34 29 12 2 1
62 37 13 12 2 3
63 43 13 12 11 9
64 67 29 12 2 18
65 70 11 12 2 3
66 72 13 12 2 1
67 88 11 12 2 1
68 6 14 13 12 2
69 28 31 13 12 2
70 42 31 13 14 15
71 46 31 13 12 29
72 50 30 13 14 15
73 52 14 13 12 11
74 56 31 13 12 11
75 76 30 13 12 11
76 82 30 13 12 2
77 90 30 13 12 29
78 7 15 14 13 12
79 8 16 15 14 13
80 35 32 15 14 13
81 79 33 15 14 13
82 13 34 16 15 14
83 17 36 16 15 14
84 20 36 16 15 33
85 40 35 16 15 14
86 47 35 16 15 33
87 48 36 16 15 32
88 54 35 16 15 32
89 55 34 16 15 33
90 66 34 16 15 32
91 9 53 37 38 39
92 84 53 37 38 48
93 26 48 38 39 41
94 57 54 38 37 53
95 62 48 38 39 40
96 64 54 38 48 49
97 65 54 38 48 47
98 78 54 38 39 41
99 87 54 38 39 40
100 1 40 39 38 37
101 19 55 39 41 42
102 36 55 39 38 37
103 41 55 39 41 45
104 75 41 39 38 37
105 77 55 39 38 48
106 81 55 39 38 54
107 10 56 40 39 38
108 53 56 40 39 41
109 83 56 40 39 55
110 2 42 41 39 38
111 18 57 41 39 40
112 23 57 41 39 38
113 27 42 41 39 40
114 30 45 41 39 40
115 32 57 41 45 46
116 49 45 41 39 38
117 51 57 41 42 43
118 59 57 41 45 47
119 61 45 41 42 43
120 86 57 41 39 55
121 3 43 42 41 39
122 4 44 43 42 41
123 45 58 43 42 41
124 63 59 43 42 41
125 11 60 44 43 42
126 16 61 44 43 58
127 22 60 44 43 58
128 31 61 44 43 42
129 38 61 44 43 59
130 39 62 44 43 58
131 69 60 44 43 59
132 71 62 44 43 42
133 74 62 44 43 59
134 5 46 45 41 39
135 14 47 45 41 39
136 33 63 45 41 57
137 44 46 45 41 42
138 58 63 45 47 48
139 73 63 45 41 39
140 80 47 45 41 42
141 85 63 45 41 42
142 12 64 46 45 41
143 60 64 46 45 63
144 89 64 46 45 47
145 24 48 47 45 41
146 25 45 47 48 38
147 68 48 47 45 46
148 15 65 48 49 50
149 21 65 48 47 45
150 29 65 48 38 39
151 34 65 48 38 37
152 37 49 48 38 39
153 43 49 48 47 45
154 67 65 48 38 54
155 70 47 48 38 39
156 72 49 48 38 37
157 88 47 48 38 37
158 6 50 49 48 38
159 28 67 49 48 38
160 42 67 49 50 51
161 46 67 49 48 65
162 50 66 49 50 51
163 52 50 49 48 47
164 56 67 49 48 47
165 76 66 49 48 47
166 82 66 49 48 38
167 90 66 49 48 65
168 7 51 50 49 48
169 8 52 51 50 49
170 35 68 51 50 49
171 79 69 51 50 49
172 13 70 52 51 50
173 17 72 52 51 50
174 20 72 52 51 69
175 40 71 52 51 50
176 47 71 52 51 69
177 48 72 52 51 68
178 54 71 52 51 68
179 55 70 52 51 69
180 66 70 52 51 68

Impropers

1 4 2 1 3 12
2 6 2 1 18 3
3 1 3 2 4 5
4 5 12 2 11 13
5 7 3 2 19 4
6 14 12 2 11 29
7 8 5 3 21 6
8 9 7 8 22 6
9 10 7 8 23 6
10 2 5 9 3 6
11 3 9 10 11 5
12 13 9 10 27 5
13 15 13 12 30 14
14 16 13 12 14 31
15 17 15 16 14 32
16 11 8 25 24 7
17 12 8 26 24 7
18 18 15 33 14 16
19 19 16 34 35 15
20 20 16 34 36 15
21 4 38 37 39 48
22 6 38 37 54 39
23 1 39 38 40 41
24 5 48 38 47 49
25 7 39 38 55 40
26 14 48 38 47 65
27 8 41 39 57 42
28 9 43 44 58 42
29 10 43 44 59 42
30 2 41 45 39 42
31 3 45 46 47 41
32 13 45 46 63 41
33 15 49 48 66 50
34 16 49 48 50 67
35 17 51 52 50 68
36 11 44 61 60 43
37 12 44 62 60 43
38 18 51 69 50 52
39 19 52 70 71 51
40 20 52 70 72 51
