LAMMPS data file via write_data, version 23 Jun 2022, timestep = 30000

948 atoms
41 atom types
956 bonds
39 bond types
1774 angles
71 angle types
2430 dihedrals
102 dihedral types
524 impropers
20 improper types

-26.8 42 xlo xhi
-21.2 41.6 ylo yhi
-25.2 53.8 zlo zhi

Masses

1 15.999
2 12.011
3 12.011
4 15.999
5 12.011
6 15.999
7 12.011
8 12.011
9 12.011
10 15.999
11 15.999
12 12.011
13 12.011
14 15.999
15 12.011
16 12.011
17 1.008
18 1.008
19 1.008
20 1.008
21 1.008
22 1.008
23 1.008
24 1.008
25 1.008
26 1.008
27 1.008
28 1.008
29 1.008
30 1.008
31 1.008
32 1.008
33 1.008
34 1.008
35 1.008
36 1.008
37 12.011
38 12.011
39 15.999
40 15.999
41 1.008

Pair Coeffs # lj/cut/coul/long

1 0.17 3.12
2 0.066 3.5
3 0.066 3.5
4 0.17 3.12
5 0.066 3.5
6 0.14 2.9
7 0.066 3.5
8 0.066 3.5
9 0.066 3.5
10 0.17 3.12
11 0.14 2.9
12 0.066 3.5
13 0.066 3.5
14 0.14 2.9
15 0.066 3.5
16 0.066 3.5
17 0.03 2.5
18 0.03 2.5
19 0.03 2.5
20 0.03 2.5
21 0.03 2.5
22 0.03 2.5
23 0.03 2.5
24 0.03 2.5
25 0.03 2.5
26 0.03 2.5
27 0.03 2.5
28 0.03 2.5
29 0.03 2.5
30 0.03 2.5
31 0.03 2.5
32 0.03 2.5
33 0.03 2.5
34 0.03 2.5
35 0.03 2.5
36 0.03 2.5
37 0.066 3.5
38 0.066 3.5
39 0.14 2.9
40 0.102 3.188
41 0 0

Bond Coeffs # harmonic

1 320 1.41
2 268 1.529
3 320 1.41
4 268 1.529
5 320 1.41
6 320 1.41
7 268 1.529
8 268 1.529
9 320 1.38
10 320 1.38
11 268 1.529
12 268 1.529
13 320 1.41
14 320 1.41
15 268 1.529
16 553 0.945
17 340 1.09
18 340 1.09
19 553 0.945
20 340 1.09
21 340 1.09
22 340 1.09
23 340 1.09
24 340 1.09
25 340 1.09
26 340 1.09
27 553 0.945
28 340 1.09
29 340 1.09
30 340 1.09
31 340 1.09
32 340 1.09
33 340 1.09
34 340 1.09
35 340 1.09
36 320 1.41
37 320 1.41
38 450 0.9572
39 320 1.38

Angle Coeffs # harmonic

1 50 109.5
2 50 109.5
3 58.35 112.7
4 50 109.5
5 60 109.5
6 50 109.5
7 58.35 112.7
8 50 109.5
9 50 109.5
10 50 109.5
11 58.35 112.7
12 50 109.5
13 60 109.5
14 50 109.5
15 55 108.5
16 35 109.5
17 37.5 110.7
18 55 108.5
19 37.5 110.7
20 35 109.5
21 35 109.5
22 37.5 110.7
23 37.5 110.7
24 37.5 110.7
25 37.5 110.7
26 55 108.5
27 37.5 110.7
28 37.5 110.7
29 37.5 110.7
30 35 109.5
31 35 109.5
32 37.5 110.7
33 37.5 110.7
34 37.5 110.7
35 37.5 110.7
36 37.5 110.7
37 37.5 110.7
38 33 107.8
39 35 109.5
40 33 107.8
41 35 109.5
42 60 109.5
43 33 107.8
44 35 109.5
45 33 107.8
46 33 107.8
47 50 109.5
48 37.5 110.7
49 35 109.5
50 37.5 110.7
51 33 107.8
52 50 109.5
53 35 109.5
54 58.35 112.7
55 37.5 110.7
56 35 109.5
57 92.6 111.55
58 33 107.8
59 50 109.5
60 33 107.8
61 33 107.8
62 37.5 110.7
63 50 109.5
64 37.5 110.7
65 37.5 110.7
66 35 109.5
67 60 109.5
68 60 109.5
69 50 109.5
70 35 109.5
71 55 104.52

Dihedral Coeffs # opls

1 9.508 0 0 0
2 1.711 -0.5 0.663 0
3 0.65 -0.25 0.67 0
4 0.65 -0.25 0.67 0
5 1.711 -0.5 0.663 0
6 1.711 -0.5 0.663 0
7 0.65 -0.25 0.67 0
8 0.65 -0.25 0.67 0
9 -0.356 -0.174 0.492 0
10 -0.356 -0.174 0.492 0
11 0 0 0.468 0
12 -0.356 -0.174 0.492 0
13 0 0 0.468 0
14 1.711 -0.5 0.663 0
15 0 0 0.468 0
16 0 0 0.3 0
17 0 0 0.468 0
18 0 0 0.468 0
19 0 0 0.468 0
20 0 0 0.3 0
21 0 0 0.76 0
22 0 0 0.3 0
23 0 0 0.3 0
24 0.65 -0.25 0.67 0
25 0.65 -0.25 0.67 0
26 1.3 -0.2 0.2 0
27 4.319 0 0 0
28 0 0 0.3 0
29 0 0 0.3 0
30 -1.552 0 0 0
31 0 0 0.468 0
32 0 0 0.468 0
33 0 0 0.3 0
34 0 0 0.468 0
35 0 0 0.76 0
36 0 0 0.468 0
37 1.3 -0.2 0.2 0
38 0 0 0.3 0
39 0 0 0.3 0
40 0 0 0.468 0
41 0 0 0.3 0
42 0 0 0.76 0
43 0.65 -0.25 0.67 0
44 4.319 0 0 0
45 0 0 0.76 0
46 0 0 0.3 0
47 0 0 0.3 0
48 0 0 0.3 0
49 1.3 -0.2 0.2 0
50 0 0 0.76 0
51 0 0 0.76 0
52 -0.55 0 0 0
53 -0.356 -0.174 0.492 0
54 0 0 0.3 0
55 0 0 0.3 0
56 0 0 0.468 0
57 0 0 0.352 0
58 0 0 0.76 0
59 0 0 0.468 0
60 0 0 0.352 0
61 0.65 -0.25 0.67 0
62 -1.552 0 0 0
63 0 0 0.76 0
64 0 0 0.3 0
65 0 0 0.468 0
66 0 0 0.3 0
67 0 0 0.3 0
68 -0.375 -1.358 0.004 0
69 0 0 0.3 0
70 1.711 -0.5 0.663 0
71 0 0 0.468 0
72 -1.552 0 0 0
73 0 0 0.3 0
74 0 0 0.3 0
75 -1.552 0 0 0
76 0 0 0.468 0
77 0 0 0.3 0
78 0 0 0.3 0
79 0 0 0.76 0
80 -0.55 0 0 0
81 0 0 0.3 0
82 0 0 0.3 0
83 0 0 0.352 0
84 -0.356 -0.174 0.492 0
85 0 0 0.468 0
86 0 0 0.3 0
87 0 0 0.468 0
88 4.319 0 0 0
89 -1.257 -1.806 0.003 0
90 0 0 0.3 0
91 0.65 -0.25 0.67 0
92 -0.375 -1.358 0.004 0
93 0 0 0.76 0
94 0.65 -0.25 0.67 0
95 0.65 -0.25 0.67 0
96 0 0 0.76 0
97 4.319 0 0 0
98 1.711 -0.5 0.663 0
99 0 0 0.468 0
100 -0.55 0 0 0
101 1.711 -0.5 0.663 0
102 0 0 0.468 0

Improper Coeffs # cvff

1 0 -1 2
2 0 -1 2
3 0 -1 2
4 0 -1 2
5 0 -1 2
6 0 -1 2
7 0 -1 2
8 0 -1 2
9 0 -1 2
10 0 -1 2
11 0 -1 2
12 0 -1 2
13 0 -1 2
14 0 -1 2
15 0 -1 2
16 0 -1 2
17 0 -1 2
18 0 -1 2
19 0 -1 2
20 0 -1 2

Atoms # full

40 2 4 -0.6923 -0.8823796943599975 -3.8040239156904265 0.663180128043811 0 0 0
56 2 20 0.411 -0.9700458801989977 -4.067368024457133 1.5991466547266444 0 0 0
60 2 24 0.0982 -0.6198148287572512 -5.260713049795633 3.551133778244634 0 0 0
92 3 20 0.411 0.6822819083483306 -7.526284459931709 -0.698130272453439 0 0 0
53 2 17 0.4161 -0.028561366399527686 -4.153013945592788 -1.7875716018189773 0 0 0
37 2 1 -0.6817 0.5295150043879027 -3.4356345417182053 -1.8796609001769289 0 0 0
59 2 23 0.0886 0.821152700689715 -5.492034467290498 1.619926795106884 0 0 0
98 3 26 0.0982 1.15334167841633 -10.712646555072226 -0.8805544515080902 0 0 0
76 3 4 -0.6923 1.0437661850392088 -7.551917330488142 -1.573720328274026 0 0 0
44 2 8 -0.2477 0.3749218782931198 -5.61185484608281 3.642934761199464 0 0 0
62 2 26 0.0982 0.3907623265828017 -6.710313415201244 3.6663877840028274 0 0 0
24 1 24 0.0982 -3.7586162783393746 -3.2700209532467186 0.9003502166793156 0 0 0
43 2 7 0.0059 1.3044646936726954 -5.122462553782249 2.519632016833355 0 0 0
328 7 4 -0.6923 -3.6001549499736623 -12.733711145620424 10.79725190494488 0 0 0
357 7 33 0.07439999999999999 -8.932650086354354 -10.496528954014297 10.265872607420311 0 0 0
356 7 32 0.07439999999999999 -9.213961221188445 -8.974723309634225 9.556548763946532 0 0 0
338 7 14 -0.3661 -7.412302325078389 -10.126149164547881 9.09882942042803 0 0 0
340 7 16 -0.2446 -9.54347431635667 -10.849824536665857 8.42499378512017 0 0 0
339 7 15 0.0105 -8.789167613303558 -9.991052992622151 9.433423651886494 0 0 0
358 7 34 0.0955 -8.96268648368246 -11.68202944392377 8.16925738039907 0 0 0
448 7 16 -0.2446 -7.720959731525449 -3.777548020786698 10.071672706087796 0 0 0
360 7 36 0.0955 -10.466621634855883 -11.204165996109733 8.806623916194667 0 0 0
359 7 35 0.0955 -9.711960753783206 -10.251649715351782 7.5331445224318925 0 0 0
468 7 36 0.0955 -8.165614851266216 -4.485736147215533 9.347394824646559 0 0 0
466 7 34 0.0955 -6.666843283183623 -3.5473553627676364 9.887703374837784 0 0 0
354 7 30 0.0885 -6.827450944961565 -8.368060068325256 9.877298744291451 0 0 0
337 7 13 -0.0145 -6.5143509775256545 -9.387648463698893 9.909714700788316 0 0 0
355 7 31 0.0885 -6.643535100145881 -9.716843213014284 10.881045766116845 0 0 0
394 8 34 0.0955 -4.465397094484674 -6.530326467559961 6.190068040696847 0 0 0
327 7 3 0.0994 -4.021874898017708 -11.429295616651824 10.898206688712975 0 0 0
574 7 34 0.0955 -1.1832881146935834 -4.017739800110017 5.194783473595249 0 0 0
341 7 17 0.4161 -3.423252964174021 -12.099489077893242 8.261529498099023 0 0 0
342 7 18 0.1151 -5.26303427054595 -11.802448317954493 9.25780493570422 0 0 0
395 8 35 0.0955 -3.000458024994661 -6.608599957340805 5.231064425272161 0 0 0
326 7 2 0.114 -4.573823538096952 -11.040197333876222 9.512060204497692 0 0 0
376 8 16 -0.2446 -3.396704008855496 -6.557748341877144 6.250925274942853 0 0 0
554 7 14 -0.3661 -3.2173764379438685 -3.1913797859475266 6.5259737753445295 0 0 0
396 8 36 0.0955 -2.9946645873739968 -5.7599309123948625 6.790570708277734 0 0 0
336 7 12 0.076 -5.041208418769125 -9.550323967951948 9.418709991265409 0 0 0
345 7 21 0.1259 -2.0661976588195925 -10.501209654388362 10.501668458701621 0 0 0
552 7 12 0.076 -2.771736790246844 -3.5158755087722464 9.037096897561668 0 0 0
542 7 2 0.114 -3.5256706078792077 -3.581689169256924 10.352045390198521 0 0 0
370 8 10 -0.6054 -0.37103487631551413 -7.309427004790366 10.569907413475013 0 0 0
335 7 11 -0.3168 -4.116707702092895 -8.64407539956564 10.0363706690706 0 0 0
388 8 28 0.4398 -0.7445519718707813 -6.456112054337424 10.403691973815603 0 0 0
353 7 29 0.1655 -5.038381216841145 -9.300739944986866 8.396430471955119 0 0 0
369 8 9 0.2482 0.9133535432756413 -7.224953323178273 10.005998003090248 0 0 0
325 7 1 -0.6817 -3.499656467840588 -11.139970436443226 8.5399376320776 0 0 0
390 8 30 0.0885 -1.2685811579388038 -9.172178550561851 8.610102380551202 0 0 0
571 7 31 0.0885 -4.517847105360296 -3.388699184941767 7.964691786705562 0 0 0
393 8 33 0.07439999999999999 -3.2276062674561823 -8.689008765829312 6.65576225624505 0 0 0
391 8 31 0.0885 -0.9150069741160608 -9.636611245776338 6.983449501336878 0 0 0
373 8 13 -0.0145 -0.7546848538019222 -8.756612215799478 7.7040709441594055 0 0 0
558 7 18 0.1151 -4.534241447691385 -3.9644025833487344 10.176872677022464 0 0 0
375 8 15 0.0105 -2.8407429213532853 -7.762355764059866 7.067673431062194 0 0 0
379 8 19 0.1524 0.5103404298536152 -10.079880290418233 10.003200944466993 0 0 0
374 8 14 -0.3661 -1.3945778669574687 -7.651880498515266 7.161319490964105 0 0 0
372 8 12 0.076 0.8132770385879754 -8.435192741064958 7.881781992381524 0 0 0
392 8 32 0.07439999999999999 -3.1883792288958346 -7.795167976304974 8.103025500684813 0 0 0
569 7 29 0.1655 -2.421199269786134 -4.507653779871456 8.767932923553929 0 0 0
371 8 11 -0.3168 1.0177592730249876 -7.230779093920793 8.667352560796878 0 0 0
389 8 29 0.1655 1.1105139754660887 -8.298784444530744 6.831174436200689 0 0 0
61 2 25 0.0982 0.8397885277484759 -5.267937676069396 4.559120968570976 0 0 0
1 1 1 -0.6817 -1.925211092250635 0.9402611175425727 -4.086848771650955 0 0 0
20 1 20 0.411 -5.260562245062715 -0.7933096591349531 -3.611614347606845 0 0 0
17 1 17 0.4161 -2.161740731698506 0.13090291279410876 -4.503970390598827 0 0 0
4 1 4 -0.6923 -4.5984899501592125 -0.24939139035631142 -4.055609181509356 0 0 0
2 1 2 0.114 -3.0655605224205695 1.6416528633428205 -3.6857754054740903 0 0 0
138 1 30 0.0885 -6.408059069402484 1.6829202333208046 1.6625768721934726 0 0 0
134 1 26 0.0982 -6.56298534064421 -0.20456936441011295 2.9933744004839054 0 0 0
140 1 32 0.07439999999999999 -8.403536652520136 1.408345697834507 1.7434196754102902 0 0 0
139 1 31 0.0885 -6.547978728556365 1.7617594942115127 -0.07139227079485994 0 0 0
48 2 12 0.076 1.2318749051946818 -1.292239149605525 -1.326660585184106 0 0 0
8 1 8 -0.2477 -4.367418557166625 -2.50312417196576 0.4477582544394991 0 0 0
27 1 27 0.1436 -2.2449672582026645 0.7054546309360099 -0.1388154346449923 0 0 0
21 1 21 0.1259 -2.479674236267683 -0.56517205755064 -2.1908897292568197 0 0 0
3 1 3 0.0994 -4.02705237930915 0.6771218556630577 -3.030595961202847 0 0 0
6 1 6 -0.405 -4.220417906221446 -0.9009516383243915 -1.3250689285081794 0 0 0
5 1 5 -0.0333 -3.3302599805667907 0.025540643753145166 -1.87893260408354 0 0 0
22 1 22 0.0886 -2.648051110816961 -1.5001905618865987 -0.18080341755541576 0 0 0
67 2 31 0.0885 0.00151564258581453 0.2639712800264248 -2.1255654121230725 0 0 0
19 1 19 0.1524 -4.8787618329073865 1.2859739927119682 -2.64196448912014 0 0 0
54 2 18 0.1151 -0.8264472971334463 -1.8989601989894536 -1.3884324457103194 0 0 0
164 2 20 0.411 0.04942908417974047 -0.11831380672298693 2.6865389350870985 0 0 0
148 2 4 -0.6923 0.31127468343273945 -0.19447623310679196 3.592476640453946 0 0 0
55 2 19 0.1524 -0.29291405572998214 -1.8679557130632785 1.1552193546675154 0 0 0
9 1 9 0.2482 -2.8115163825072504 1.1702007875768647 -0.9113078177689264 0 0 0
23 1 23 0.0886 -3.2582943560956092 -2.863482160501399 -1.254801415215953 0 0 0
7 1 7 0.0059 -3.5249818092785867 -1.9385947415940283 -0.6618490338356807 0 0 0
127 1 19 0.1524 -3.6942416862781764 0.8818400432393191 1.8824930790902914 0 0 0
38 2 2 0.114 0.14437295466764483 -2.3701455186810283 -1.0194606824848151 0 0 0
39 2 3 0.0994 0.06086550287937054 -2.7263634635303626 0.5056079075373184 0 0 0
49 2 13 -0.0145 0.8271497344223734 0.21278399736335013 -1.3542258248833168 0 0 0
26 1 26 0.0982 -4.532043758735472 -1.774838276957123 1.1589220907434288 0 0 0
25 1 25 0.0982 -5.236647331612664 -2.9887064743983616 0.04357380164487393 0 0 0
66 2 30 0.0885 0.5010518175237914 0.5313420302498041 -0.4166639772968324 0 0 0
112 1 4 -0.6923 -1.8621762976295073 1.6411105613866899 2.001248520288246 0 0 0
133 1 25 0.0982 -6.501035595002193 -0.8590090679988135 4.594878893062435 0 0 0
467 7 35 0.0955 -8.165917954902202 -2.7632826266485804 10.073478886786196 0 0 0
132 1 24 0.0982 -7.1271080244466845 0.7986116808196185 4.399392178367144 0 0 0
250 1 34 0.0955 -9.793887031666937 1.2613041788884871 6.335581116886676 0 0 0
116 1 8 -0.2477 -6.395966760973682 0.12134719774530627 4.042355462025621 0 0 0
252 1 36 0.0955 -8.436503847492217 1.4425185551444843 7.373272305881716 0 0 0
251 1 35 0.0955 -10.022465129911996 1.2789192477911266 8.071561928189784 0 0 0
232 1 16 -0.2446 -9.51018771776207 1.7227413012028108 7.240758465221689 0 0 0
130 1 22 0.0886 -4.813085954048519 0.8419459966426348 5.309937354543319 0 0 0
167 2 23 0.0886 -0.6790488946120968 1.2139345045458771 5.534290052424983 0 0 0
151 2 7 0.0059 -0.007145949699129224 1.0504121095593968 6.321034476756991 0 0 0
166 2 22 0.0886 -0.03760561065214219 -0.010054836640641537 6.542800352044537 0 0 0
570 7 30 0.0885 -3.699620123329563 -1.842023410072517 7.947269871611276 0 0 0
559 7 19 0.1524 -4.098742666831518 -1.5418172684457072 10.277483885498965 0 0 0
549 7 9 0.2482 -1.497249618779413 -1.5700993875360847 9.825953514812724 0 0 0
555 7 15 0.0105 -2.155438946001627 -2.3429735446860636 6.154342557860151 0 0 0
551 7 11 -0.3168 -1.5541780264324612 -2.751259219459719 9.121295344076048 0 0 0
572 7 32 0.07439999999999999 -1.3576929163855345 -2.3878155641361793 6.8550892084321955 0 0 0
568 7 28 0.4398 -1.6666630806909049 0.21364030775659032 9.429915940857102 0 0 0
550 7 10 -0.6054 -1.9212268545325537 -0.5440117715128456 8.970418432588195 0 0 0
567 7 27 0.1436 -0.3967292376801873 -1.3839064439851347 9.989811316166099 0 0 0
553 7 13 -0.0145 -3.589818120913197 -2.9171338323091316 7.826138322771337 0 0 0
573 7 33 0.07439999999999999 -2.347681675698471 -1.3215020951516927 5.846565550119522 0 0 0
115 1 7 0.0059 -5.0375964547855645 0.6877183840620904 4.270552405246285 0 0 0
575 7 35 0.0955 -0.4207121832272679 -2.6391842977497357 4.938479516944489 0 0 0
131 1 23 0.0886 -4.222978827402703 0.04620529113882049 3.9690429031303767 0 0 0
612 12 36 0.0955 1.2791629102545539 1.2791342228935019 10.789315426010962 0 0 0
576 7 36 0.0955 -1.8353950172258995 -2.8824845406974626 3.9915255895040715 0 0 0
556 7 16 -0.2446 -1.4387729660548487 -2.9998593838964402 5.001810900896377 0 0 0
170 2 26 0.0982 0.5003659661084643 1.6797207349713017 8.227272303749341 0 0 0
168 2 24 0.0982 -1.2568280918766288 1.7033524716403148 7.887911464686357 0 0 0
18 1 18 0.1151 -3.5200696301183148 2.2664272344967276 -4.388290737543012 0 0 0
142 1 34 0.0955 -9.411138425818997 3.4669450184956423 2.8281617165073727 0 0 0
141 1 33 0.07439999999999999 -9.12720240903649 1.8896907729511263 0.20977422235029955 0 0 0
121 1 13 -0.0145 -6.503518218167317 2.36358686673606 0.8326565201439889 0 0 0
144 1 36 0.0955 -10.56883959607363 3.639118778703309 1.4709346404295427 0 0 0
122 1 14 -0.3661 -7.765616149094252 3.1305425435789878 0.8953574789767966 0 0 0
124 1 16 -0.2446 -9.942960399164118 2.9381802511423665 2.0018291366026193 0 0 0
123 1 15 0.0105 -8.827373971002965 2.257835376986204 1.1800017752337217 0 0 0
143 1 35 0.0955 -10.626546028502602 2.2231241112085227 2.5590533646099662 0 0 0
31 1 31 0.0885 -3.430494061964509 4.490873115279521 -3.2027933749806596 0 0 0
287 5 35 0.0955 -5.633357270953762 6.753399921346726 0.7396953859179961 0 0 0
13 1 13 -0.0145 -3.0571698551853665 4.0075588707884515 -2.3221419268908936 0 0 0
69 2 33 0.07439999999999999 0.6831548345440903 2.526081942135212 -1.322436354350823 0 0 0
30 1 30 0.0885 -3.9315838841431425 3.785551365381755 -1.7369834797711565 0 0 0
32 1 32 0.07439999999999999 -2.5540682214504096 6.420814167147669 -2.4076886373053785 0 0 0
15 1 15 0.0105 -1.653914528920593 5.856899306593721 -2.269523540391291 0 0 0
33 1 33 0.07439999999999999 -1.2032940531782523 5.58829020937919 -3.261985312632417 0 0 0
34 1 34 0.0955 -0.3463505461106323 7.552056705716518 -1.723969469791409 0 0 0
16 1 16 -0.2446 -0.5847304801326902 6.520409415167711 -1.4069071425762387 0 0 0
110 1 2 0.114 -3.818963748898808 2.6775566346821886 0.6885230404526093 0 0 0
126 1 18 0.1151 -3.0303162318768537 3.3889982043079083 0.2865798048392366 0 0 0
128 1 20 0.411 -1.3661434823279197 2.4504362486806235 2.0862491573831217 0 0 0
265 5 13 -0.0145 -1.6653323066498016 7.5189738193965 2.732489221123188 0 0 0
14 1 14 -0.3661 -2.0450069895683067 4.671206436143191 -1.5954105128453833 0 0 0
29 1 29 0.1655 -1.558831086270297 3.0260602095776434 -3.2404439226672115 0 0 0
120 1 12 0.076 -5.252211862292064 3.3668046497615207 0.9647537619733995 0 0 0
111 1 3 0.0994 -3.3217179036308053 1.8731525185249251 1.9373571255734352 0 0 0
283 5 31 0.0885 -2.1452172049986746 6.904264953961187 3.5797270758726243 0 0 0
113 1 5 -0.0333 -3.8174555405860198 2.4586199317740474 3.2465719636054176 0 0 0
117 1 9 0.2482 -4.152770489561705 3.963371852728265 3.0042259651422887 0 0 0
263 5 11 -0.3168 0.6465743552574915 7.825493039244187 3.5589416860495326 0 0 0
256 5 4 -0.6923 0.4962402201030596 3.6313616552734427 3.4042466683095007 0 0 0
254 5 2 0.114 0.012056785011697999 5.683547143394679 2.4029543386136636 0 0 0
281 5 29 0.1655 0.15069256956907215 7.676829446991836 1.6541930250011443 0 0 0
255 5 3 0.0994 0.1420579053625899 5.0068835617445915 3.6689033395442534 0 0 0
264 5 12 0.076 -0.18564875100645706 7.1873810680597945 2.5270583803902453 0 0 0
270 5 18 0.1151 -0.8547413167631233 5.186738775145345 1.8965157809211994 0 0 0
268 5 16 -0.2446 -4.552222926044863 6.8644432482883015 0.5592719509725947 0 0 0
137 1 29 0.1655 -5.484357611398561 4.08749806648753 0.2049059223024141 0 0 0
286 5 34 0.0955 -4.320779113668257 7.236815730150391 -0.41605638782677 0 0 0
36 1 36 0.0955 -0.9632762133583149 6.605293808477251 -0.4208779248783587 0 0 0
266 5 14 -0.3661 -2.459551846537891 7.261147787954418 1.559620440447476 0 0 0
284 5 32 0.07439999999999999 -3.945195015186035 8.631775558421465 1.6497075455377193 0 0 0
267 5 15 0.0105 -3.7808784672390767 7.544804206450752 1.6949498372525063 0 0 0
282 5 30 0.0885 -1.8887524722429299 8.51549827038172 2.987746641125556 0 0 0
288 5 36 0.0955 -4.213572436768786 5.770963955117368 0.5607532105712026 0 0 0
119 1 11 -0.3168 -5.276601889535069 4.066161989235759 2.189134358631164 0 0 0
135 1 27 0.1436 -3.3144883095340387 4.459534520633478 2.536950943548411 0 0 0
285 5 33 0.07439999999999999 -4.242243044150868 7.014045270459881 2.543925905744512 0 0 0
35 1 35 0.0955 0.23965087668658722 5.878379251314543 -1.3863879600315954 0 0 0
11 1 11 -0.3168 -1.9681247005263975 2.042673085754711 -1.5327380630991134 0 0 0
114 1 6 -0.405 -5.0553736557240185 1.934563784590245 3.7614764182722755 0 0 0
10 1 39 -0.6054 -4.0141066450191625 1.7872940639487864 -0.4235435973416291 0 0 0
12 1 12 0.076 -2.4353707760559016 2.657000561255562 -2.7024446858093807 0 0 0
253 5 1 -0.6817 1.307114812468371 5.636331621914839 1.7052249624705194 0 0 0
129 1 21 0.1259 -3.0305247115303557 2.2987528352398754 3.9716368595961242 0 0 0
246 1 30 0.0885 -7.041483162144858 3.57792649981835 7.261008790908866 0 0 0
226 1 10 -0.6054 -7.697210024798273 6.262681295680072 7.021867981389794 0 0 0
248 1 32 0.07439999999999999 -10.648285803955904 3.6722607157770697 6.996526240940625 0 0 0
229 1 13 -0.0145 -7.429441456520971 3.437543791848675 6.162915620133197 0 0 0
231 1 15 0.0105 -9.586239291804526 3.261274619616041 7.193464493936303 0 0 0
249 1 33 0.07439999999999999 -9.185492989338169 3.7993554274174195 8.109087467644976 0 0 0
244 4 28 0.4398 -8.598054811032274 6.479816707540362 6.800312270521801 0 0 0
636 13 24 0.0982 -5.7860722149470245 3.43172823066668 10.236481018271554 0 0 0
247 1 31 0.0885 -7.319172191708389 2.396431118226458 5.931153400777562 0 0 0
230 1 14 -0.3661 -8.814050811726142 3.819566851689875 6.149678248621689 0 0 0
225 1 9 0.2482 -6.987124151283919 6.485636626218395 5.867244099959687 0 0 0
227 1 11 -0.3168 -7.244337785859156 5.492001674935716 4.85181432006132 0 0 0
243 1 27 0.1436 -7.168552223991531 7.4662060981100815 5.380279067850508 0 0 0
228 1 12 0.076 -6.604995894362644 4.30436027929758 5.146252541224286 0 0 0
238 1 22 0.0886 -6.210299341262724 9.149494482577202 7.324520782236486 0 0 0
245 1 29 0.1655 -6.648318437011305 3.8762509231671856 4.153156977334798 0 0 0
118 1 39 -0.6054 -4.288474678324364 4.8008243606711 4.112340292086048 0 0 0
619 13 7 0.0059 -4.48115750479834 5.1732868335248545 10.697622000428904 0 0 0
235 1 19 0.1524 -5.179306488618316 4.7692794989866725 7.471493988320224 0 0 0
625 13 13 -0.0145 0.9320969692503137 7.945696162399933 9.609398536355881 0 0 0
624 13 12 0.076 -0.4280164356077042 8.4786664981111 10.03642381288631 0 0 0
241 1 25 0.0982 -3.5289841424067143 9.509800533338073 8.336847644495158 0 0 0
280 5 28 0.4398 -0.49074022472821877 6.830291492987709 6.370437591488457 0 0 0
271 5 19 0.1524 -0.8649570021944841 5.212045511027869 4.189082764041058 0 0 0
152 2 8 -0.2477 -0.27783847309145837 2.0097472074462166 7.480417395399254 0 0 0
234 1 18 0.1151 -4.682882495051264 3.2900972955075676 5.508909345124552 0 0 0
638 13 26 0.0982 -4.212871897167694 3.42157330351113 9.357755571179121 0 0 0
218 1 2 0.114 -5.030873033379551 4.334270099723296 5.3634925188738185 0 0 0
169 2 25 0.0982 -0.25357537970369465 3.093301548845985 7.167639912551096 0 0 0
261 5 9 0.2482 0.7939258373607287 7.258148197473543 4.796080349287833 0 0 0
257 5 5 -0.0333 1.1367817395700377 5.742214823689874 4.604477521035335 0 0 0
242 1 26 0.0982 -5.086472602094632 9.10583667475848 9.33855738324046 0 0 0
221 1 5 -0.0333 -5.406093492875947 6.659811342967503 6.299938366890089 0 0 0
223 1 7 0.0059 -5.202702406339551 8.867361524254566 7.301193149762228 0 0 0
239 1 23 0.0886 -4.684422556591061 9.201572771577569 6.3995135218320875 0 0 0
622 13 10 -0.6054 -1.3353757617721793 5.965032355199638 8.742999338309007 0 0 0
262 5 10 -0.6054 -0.39767552824740343 7.407138438032562 5.555932613996358 0 0 0
222 1 6 -0.405 -5.222903115625805 7.419831999427053 7.505085673203129 0 0 0
224 1 8 -0.2477 -4.630637272296366 9.555337726086764 8.423077401609385 0 0 0
621 13 9 0.2482 -2.1319384976957814 7.027961578866317 9.139425328091658 0 0 0
639 13 27 0.1436 -3.0214292712295507 7.122451414195747 8.528873092880152 0 0 0
641 13 29 0.1655 -0.2520696040638564 9.55723678166123 10.138101092738998 0 0 0
643 13 31 0.0885 1.084849480717829 6.885426492833449 9.816230399876641 0 0 0
640 13 28 0.4398 -1.8624763584934199 5.1569793477869785 8.715580626087805 0 0 0
219 1 3 0.0994 -4.707163826887049 5.261420450529542 6.573551979428799 0 0 0
236 1 20 0.411 -2.9581990709006467 5.745002250123215 6.038244944857718 0 0 0
220 1 4 -0.6923 -3.3802306169183884 5.301480805985332 6.785812824595169 0 0 0
623 13 11 -0.3168 -1.4980915198359037 8.21675165726248 9.034756917471572 0 0 0
620 13 8 -0.2477 -4.749160316035957 3.6959952462070884 10.28555885789104 0 0 0
634 13 22 0.0886 -4.829596845796801 5.818223827204128 9.863364620091684 0 0 0
237 1 21 0.1259 -4.935466740119975 7.116500860179364 5.389119663196566 0 0 0
618 13 6 -0.405 -3.0863258582544657 5.312278165772665 10.612763259922886 0 0 0
258 5 6 -0.405 1.0913487806273598 5.026272792157542 5.850369619654084 0 0 0
617 13 5 -0.0333 -2.6334942177429084 6.646874708760044 10.591822357379218 0 0 0
272 5 20 0.411 0.2624625758249896 3.107619739939014 4.1115224109802595 0 0 0
642 13 30 0.0885 1.0359489997701372 8.17821771243289 8.530706580380478 0 0 0
633 13 21 0.1259 -3.4018528141137843 7.435321034448498 10.824515082497197 0 0 0
637 13 25 0.0982 -4.327455337245265 2.8820552420554413 10.920018054957131 0 0 0
240 1 24 0.0982 -4.954130186768982 10.554525473214296 8.42455182963846 0 0 0
96 3 24 0.0982 2.259545320790517 -12.05289182851122 -0.8126077797994378 0 0 0
89 3 17 0.4161 2.193833020387327 -7.6365588373929425 -3.7139351474339954 0 0 0
58 2 22 0.0886 2.339674321746347 -5.523142070927788 2.6139465126441683 0 0 0
203 3 23 0.0886 8.688124071496308 -4.631321458997398 0.1619719002134043 0 0 0
211 3 31 0.0885 3.677490690798714 -7.870888269414481 2.683846447797396 0 0 0
95 3 23 0.0886 4.019617522522936 -10.298299471359535 0.13202656318238004 0 0 0
93 3 21 0.1259 3.658499007429468 -8.625253752784058 -1.660380800945563 0 0 0
57 2 21 0.1259 1.860484204504915 -3.9063787755174864 0.30966119357298316 0 0 0
94 3 22 0.0886 2.577290864856145 -10.469710992968322 1.1437549675915473 0 0 0
186 3 6 -0.405 8.509007229026095 -5.316564126839204 2.043624221920055 0 0 0
193 3 13 -0.0145 4.726501416309088 -8.012899514274531 3.018873789433977 0 0 0
108 3 36 0.0955 7.561497107966898 -2.2270080326785378 -2.071218277663433 0 0 0
78 3 6 -0.405 2.756024569294902 -8.628457337122876 0.15442024256569606 0 0 0
79 3 7 0.0059 2.965995531126464 -10.068593496015357 0.1607352369784239 0 0 0
91 3 19 0.1524 2.2224080617334154 -6.176791959490956 -0.6141473842108187 0 0 0
74 3 2 0.114 2.9254701834033017 -6.265704906876505 -2.679228708202241 0 0 0
106 3 34 0.0955 7.70616285785305 -2.7842613364983833 -0.46312965184274696 0 0 0
75 3 3 0.0994 2.3295357563871417 -6.952345714042333 -1.4250827545835463 0 0 0
102 3 30 0.0885 3.7924483776111604 -4.175372507236604 -0.8462742283379149 0 0 0
184 3 4 -0.6923 4.987865189712421 -3.8582714680127266 2.118259642981771 0 0 0
185 3 5 -0.0333 7.323036923413734 -4.639617264089754 2.5369869259535722 0 0 0
210 3 30 0.0885 5.127137403061647 -8.677137670425678 2.259854428168054 0 0 0
87 3 15 0.0105 5.616759918841823 -2.3872360414897673 -1.3084998262721885 0 0 0
90 3 18 0.1151 2.221699469067311 -5.472365653906373 -2.8601399483506085 0 0 0
73 3 1 -0.6817 3.006972055845983 -7.140039882886568 -3.7435624700790266 0 0 0
77 3 5 -0.0333 3.385089036342317 -7.931608809113138 -0.8712195348730607 0 0 0
42 2 6 -0.405 1.3674085817677488 -3.716828180934522 2.4026822806482886 0 0 0
84 3 12 0.076 4.297171693458279 -5.619933671727748 -2.391146800973093 0 0 0
83 3 11 -0.3168 5.149878517472526 -6.342040328540916 -1.4878318539252526 0 0 0
86 3 14 -0.3661 5.534146422453899 -3.8335851010724573 -1.6068991314003178 0 0 0
85 3 13 -0.0145 4.224680248608682 -4.240523160168979 -1.8317308456653023 0 0 0
81 3 9 0.2482 4.641864324063761 -7.1297922944294445 -0.4487671280740268 0 0 0
198 3 18 0.1151 6.3731126809482666 -6.756316090468024 1.0089745233924967 0 0 0
82 3 39 -0.6054 4.373221741677121 -6.279969563734871 0.635864551123649 0 0 0
183 3 3 0.0994 6.053589413686138 -4.696519679756534 1.5311713230712796 0 0 0
101 3 29 0.1655 4.793544577669236 -5.601810065913001 -3.351318713479594 0 0 0
199 3 19 0.1524 6.262084910122356 -4.345548307331411 0.5670108793077943 0 0 0
182 3 2 0.114 5.57225057448857 -6.158714100938358 1.4261076884905282 0 0 0
200 3 20 0.411 4.135765698545999 -4.175302447491706 1.8389243857940127 0 0 0
103 3 31 0.0885 3.728509375112583 -3.444390391306896 -2.395279006169788 0 0 0
99 3 27 0.1436 5.365306300684343 -7.889904887221807 -0.23533800773707012 0 0 0
97 3 25 0.0982 2.460896203710667 -10.603689172737056 -1.9335990973383406 0 0 0
192 3 12 0.076 5.35856944557911 -6.675093287841233 2.8532189152419942 0 0 0
80 3 8 -0.2477 2.197288767238738 -10.945440699001223 -0.9259230866038967 0 0 0
41 2 5 -0.0333 1.449668505012883 -3.1756680005089284 1.0524945632010854 0 0 0
201 3 21 0.1259 7.521815968658761 -3.5692712044747945 2.684334396240637 0 0 0
187 3 7 0.0059 9.363139252408127 -4.784585913545334 1.0383449162990046 0 0 0
204 3 24 0.0982 11.22513632396196 -5.708140289415005 1.463783633923093 0 0 0
205 3 25 0.0982 10.841398586378435 -5.569178191213928 -0.2043533475107559 0 0 0
202 3 22 0.0886 9.684951677200281 -3.7944510132584304 1.3584147575708851 0 0 0
188 3 8 -0.2477 10.433622015219287 -5.736871437069356 0.7380765720955074 0 0 0
206 3 26 0.0982 9.984875727870186 -6.765636748236764 0.727739551708552 0 0 0
214 3 34 0.0955 5.037213782237967 -11.942293573881978 4.896479540622309 0 0 0
195 3 15 0.0105 4.217445085486945 -9.94514233777768 4.34338234642269 0 0 0
208 3 28 0.4398 8.76681837434404 -5.233546143348898 4.353167701829877 0 0 0
432 9 36 0.0955 3.969028021706506 -2.845996728572688 4.84526716000619 0 0 0
196 3 16 -0.2446 5.230934568235721 -11.05210802087118 4.270573142349797 0 0 0
215 3 35 0.0955 6.18894199390807 -10.718021973192224 4.630443008584909 0 0 0
377 8 17 0.4161 3.591209855288523 -10.169937352635728 8.3643802603542 0 0 0
411 9 15 0.0105 3.5456618467070338 -4.702531130858317 5.865643027397739 0 0 0
361 8 1 -0.6817 3.079443538501328 -9.434417002293957 8.11313179611815 0 0 0
424 9 28 0.4398 4.5657093546066285 -4.192251576597471 8.859126582375731 0 0 0
406 9 10 -0.6054 4.620212844110059 -4.886593650462819 9.548777606216246 0 0 0
412 9 16 -0.2446 3.3388628877936655 -3.2183842169658177 5.674185854561838 0 0 0
400 9 4 -0.6923 5.612898127299441 -9.02245276291917 10.242288402403465 0 0 0
415 9 19 0.1524 4.495468741112604 -7.703181225110507 9.156446124553158 0 0 0
387 8 27 0.1436 1.4201392947450042 -6.276736169560233 10.314338213106069 0 0 0
213 3 33 0.07439999999999999 3.6467415941061514 -9.956684798959767 5.279657657096384 0 0 0
397 9 1 -0.6817 7.897417512940361 -8.155254835941918 8.597849652478445 0 0 0
425 9 29 0.1655 7.0450978243015685 -6.456175234425481 6.737578359645309 0 0 0
414 9 18 0.1151 6.265642307857983 -8.640578268707321 7.520863449477647 0 0 0
426 9 30 0.0885 4.155163187936536 -6.48469439089888 7.425074387895249 0 0 0
409 9 13 -0.0145 5.0223789964368315 -6.200733584373244 6.7989494324709385 0 0 0
427 9 31 0.0885 5.022186201008299 -6.876770200770761 5.947641851906084 0 0 0
381 8 21 0.1259 2.7795053925838467 -8.189923849227224 10.414365585595784 0 0 0
410 9 14 -0.3661 4.808046798469157 -4.894516289596846 6.41766272952583 0 0 0
407 9 11 -0.3168 6.583126131225814 -5.470812967898172 8.478428628007752 0 0 0
408 9 12 0.076 6.346908057449085 -6.524144491839465 7.579814207056603 0 0 0
398 9 2 0.114 6.532331587981608 -7.906012588735837 8.220841156042503 0 0 0