LAMMPS data file via write_data, version 23 Jun 2022, timestep = 20000

972 atoms
41 atom types
972 bonds
39 bond types
1782 angles
71 angle types
2430 dihedrals
102 dihedral types
540 impropers
20 improper types

-26.8 42 xlo xhi
-21.2 41.6 ylo yhi
-25.2 53.8 zlo zhi

Masses

1 15.999
2 12.011
3 12.011
4 15.999
5 12.011
6 15.999
7 12.011
8 12.011
9 12.011
10 15.999
11 15.999
12 12.011
13 12.011
14 15.999
15 12.011
16 12.011
17 1.008
18 1.008
19 1.008
20 1.008
21 1.008
22 1.008
23 1.008
24 1.008
25 1.008
26 1.008
27 1.008
28 1.008
29 1.008
30 1.008
31 1.008
32 1.008
33 1.008
34 1.008
35 1.008
36 1.008
37 12.011
38 12.011
39 15.999
40 15.999
41 1.008

Pair Coeffs # lj/cut/coul/long

1 0.17 3.12
2 0.066 3.5
3 0.066 3.5
4 0.17 3.12
5 0.066 3.5
6 0.14 2.9
7 0.066 3.5
8 0.066 3.5
9 0.066 3.5
10 0.17 3.12
11 0.14 2.9
12 0.066 3.5
13 0.066 3.5
14 0.14 2.9
15 0.066 3.5
16 0.066 3.5
17 0.03 2.5
18 0.03 2.5
19 0.03 2.5
20 0.03 2.5
21 0.03 2.5
22 0.03 2.5
23 0.03 2.5
24 0.03 2.5
25 0.03 2.5
26 0.03 2.5
27 0.03 2.5
28 0.03 2.5
29 0.03 2.5
30 0.03 2.5
31 0.03 2.5
32 0.03 2.5
33 0.03 2.5
34 0.03 2.5
35 0.03 2.5
36 0.03 2.5
37 0.066 3.5
38 0.066 3.5
39 0.14 2.9
40 0.102 3.188
41 0 0

Bond Coeffs # harmonic

1 320 1.41
2 268 1.529
3 320 1.41
4 268 1.529
5 320 1.41
6 320 1.41
7 268 1.529
8 268 1.529
9 320 1.38
10 320 1.38
11 268 1.529
12 268 1.529
13 320 1.41
14 320 1.41
15 268 1.529
16 553 0.945
17 340 1.09
18 340 1.09
19 553 0.945
20 340 1.09
21 340 1.09
22 340 1.09
23 340 1.09
24 340 1.09
25 340 1.09
26 340 1.09
27 553 0.945
28 340 1.09
29 340 1.09
30 340 1.09
31 340 1.09
32 340 1.09
33 340 1.09
34 340 1.09
35 340 1.09
36 320 1.41
37 320 1.41
38 450 0.9572
39 320 1.38

Angle Coeffs # harmonic

1 50 109.5
2 50 109.5
3 58.35 112.7
4 50 109.5
5 60 109.5
6 50 109.5
7 58.35 112.7
8 50 109.5
9 50 109.5
10 50 109.5
11 58.35 112.7
12 50 109.5
13 60 109.5
14 50 109.5
15 55 108.5
16 35 109.5
17 37.5 110.7
18 55 108.5
19 37.5 110.7
20 35 109.5
21 35 109.5
22 37.5 110.7
23 37.5 110.7
24 37.5 110.7
25 37.5 110.7
26 55 108.5
27 37.5 110.7
28 37.5 110.7
29 37.5 110.7
30 35 109.5
31 35 109.5
32 37.5 110.7
33 37.5 110.7
34 37.5 110.7
35 37.5 110.7
36 37.5 110.7
37 37.5 110.7
38 33 107.8
39 35 109.5
40 33 107.8
41 35 109.5
42 60 109.5
43 33 107.8
44 35 109.5
45 33 107.8
46 33 107.8
47 50 109.5
48 37.5 110.7
49 35 109.5
50 37.5 110.7
51 33 107.8
52 50 109.5
53 35 109.5
54 58.35 112.7
55 37.5 110.7
56 35 109.5
57 92.6 111.55
58 33 107.8
59 50 109.5
60 33 107.8
61 33 107.8
62 37.5 110.7
63 50 109.5
64 37.5 110.7
65 37.5 110.7
66 35 109.5
67 60 109.5
68 60 109.5
69 50 109.5
70 35 109.5
71 55 104.52

Dihedral Coeffs # opls

1 9.508 0 0 0
2 1.711 -0.5 0.663 0
3 0.65 -0.25 0.67 0
4 0.65 -0.25 0.67 0
5 1.711 -0.5 0.663 0
6 1.711 -0.5 0.663 0
7 0.65 -0.25 0.67 0
8 0.65 -0.25 0.67 0
9 -0.356 -0.174 0.492 0
10 -0.356 -0.174 0.492 0
11 0 0 0.468 0
12 -0.356 -0.174 0.492 0
13 0 0 0.468 0
14 1.711 -0.5 0.663 0
15 0 0 0.468 0
16 0 0 0.3 0
17 0 0 0.468 0
18 0 0 0.468 0
19 0 0 0.468 0
20 0 0 0.3 0
21 0 0 0.76 0
22 0 0 0.3 0
23 0 0 0.3 0
24 0.65 -0.25 0.67 0
25 0.65 -0.25 0.67 0
26 1.3 -0.2 0.2 0
27 4.319 0 0 0
28 0 0 0.3 0
29 0 0 0.3 0
30 -1.552 0 0 0
31 0 0 0.468 0
32 0 0 0.468 0
33 0 0 0.3 0
34 0 0 0.468 0
35 0 0 0.76 0
36 0 0 0.468 0
37 1.3 -0.2 0.2 0
38 0 0 0.3 0
39 0 0 0.3 0
40 0 0 0.468 0
41 0 0 0.3 0
42 0 0 0.76 0
43 0.65 -0.25 0.67 0
44 4.319 0 0 0
45 0 0 0.76 0
46 0 0 0.3 0
47 0 0 0.3 0
48 0 0 0.3 0
49 1.3 -0.2 0.2 0
50 0 0 0.76 0
51 0 0 0.76 0
52 -0.55 0 0 0
53 -0.356 -0.174 0.492 0
54 0 0 0.3 0
55 0 0 0.3 0
56 0 0 0.468 0
57 0 0 0.352 0
58 0 0 0.76 0
59 0 0 0.468 0
60 0 0 0.352 0
61 0.65 -0.25 0.67 0
62 -1.552 0 0 0
63 0 0 0.76 0
64 0 0 0.3 0
65 0 0 0.468 0
66 0 0 0.3 0
67 0 0 0.3 0
68 -0.375 -1.358 0.004 0
69 0 0 0.3 0
70 1.711 -0.5 0.663 0
71 0 0 0.468 0
72 -1.552 0 0 0
73 0 0 0.3 0
74 0 0 0.3 0
75 -1.552 0 0 0
76 0 0 0.468 0
77 0 0 0.3 0
78 0 0 0.3 0
79 0 0 0.76 0
80 -0.55 0 0 0
81 0 0 0.3 0
82 0 0 0.3 0
83 0 0 0.352 0
84 -0.356 -0.174 0.492 0
85 0 0 0.468 0
86 0 0 0.3 0
87 0 0 0.468 0
88 4.319 0 0 0
89 -1.257 -1.806 0.003 0
90 0 0 0.3 0
91 0.65 -0.25 0.67 0
92 -0.375 -1.358 0.004 0
93 0 0 0.76 0
94 0.65 -0.25 0.67 0
95 0.65 -0.25 0.67 0
96 0 0 0.76 0
97 4.319 0 0 0
98 1.711 -0.5 0.663 0
99 0 0 0.468 0
100 -0.55 0 0 0
101 1.711 -0.5 0.663 0
102 0 0 0.468 0

Improper Coeffs # cvff

1 0 -1 2
2 0 -1 2
3 0 -1 2
4 0 -1 2
5 0 -1 2
6 0 -1 2
7 0 -1 2
8 0 -1 2
9 0 -1 2
10 0 -1 2
11 0 -1 2
12 0 -1 2
13 0 -1 2
14 0 -1 2
15 0 -1 2
16 0 -1 2
17 0 -1 2
18 0 -1 2
19 0 -1 2
20 0 -1 2

Atoms # full

40 2 4 -0.6923 5.298145135993664 0.1428092283123549 2.1556843120603357 0 0 0
17 1 17 0.4161 1.8947286906782737 0.6943429773002866 2.247953935788309 0 0 0
4 1 4 -0.6923 1.1447267489494244 -0.04272968410119915 4.522966673284685 0 0 0
56 2 20 0.411 5.503495897696995 -0.2347942018231311 3.036171071378369 0 0 0
18 1 18 0.1151 -0.2732686904725983 1.1813153948071378 2.583142838708371 0 0 0
53 2 17 0.4161 6.848366437255804 0.9876189944047259 0.2889684853262032 0 0 0
36 1 36 0.0955 -4.519506939993886 6.819091112665437 3.613802069984248 0 0 0
32 1 32 0.07439999999999999 -3.3018563240364367 4.962621303489683 4.791797061015514 0 0 0
14 1 14 -0.3661 -1.6884993874345942 4.953522414623627 3.5127766361378217 0 0 0
33 1 33 0.07439999999999999 -3.7503626618592896 4.418839684817109 3.351161267717303 0 0 0
15 1 15 0.0105 -3.095967725258892 5.155282529364672 3.7197725911343835 0 0 0
31 1 31 0.0885 -1.9505310082794336 2.859732785913929 3.33882195641646 0 0 0
34 1 34 0.0955 -3.5703175921636956 6.596146912475238 2.085545525573022 0 0 0
35 1 35 0.0955 -2.8045956920557473 7.225896309152024 3.594904452832776 0 0 0
16 1 16 -0.2446 -3.5241542519201063 6.523669336472525 3.173936603252445 0 0 0
65 2 29 0.1655 5.984941331588765 4.270308932079719 0.08941115998493739 0 0 0
52 2 16 -0.2446 1.7338477902756917 6.259873578607486 0.3097347676437698 0 0 0
175 5 31 0.0885 6.274777527666198 7.387950790014012 1.5666528766701064 0 0 0
110 4 2 0.114 1.9066856723088594 7.7497534560771175 4.72858546977184 0 0 0
30 1 30 0.0885 -1.4279455045858647 3.4080321952998562 4.917014160314683 0 0 0
125 4 17 0.4161 3.4963124363366624 8.323982711420618 3.7954060793651423 0 0 0
252 7 36 0.0955 1.565525796083971 8.623112893638327 -0.8967381316489278 0 0 0
50 2 14 -0.3661 4.116153163151179 5.815740192039989 0.9703609852842492 0 0 0
37 2 1 -0.6817 6.821974545687786 1.9423801468253874 0.2938172270902847 0 0 0
39 2 3 0.0994 5.35107819016197 1.6081242038677717 2.2598542739081946 0 0 0
41 2 5 -0.0333 6.5359514680976885 2.0591232105510704 3.1492991202706095 0 0 0
71 2 35 0.0955 2.133333152062366 6.175061226087157 -0.6717952924977365 0 0 0
54 2 18 0.1151 4.752233423376248 1.92804196305473 0.2485550293678852 0 0 0
70 2 34 0.0955 1.2193674114653446 5.324319540691806 0.5148206227601742 0 0 0
68 2 32 0.07439999999999999 3.0319079864443594 7.432224462210014 1.5328428964006666 0 0 0
3 1 3 0.0994 0.8729463103873022 1.3294588895859294 4.53218049608677 0 0 0
64 2 28 0.4398 6.0985009422152565 4.8715989356079 4.6143304028026035 0 0 0
21 1 21 0.1259 2.9057844155042742 1.8504866366796755 4.427197157703588 0 0 0
157 5 13 -0.0145 6.506479965379866 8.393884416981608 1.9358410742363166 0 0 0
46 2 10 -0.6054 5.666586106773896 4.152522166959219 4.155591810124206 0 0 0
13 1 13 -0.0145 -1.3253308738426826 3.568856567780189 3.8611894446161816 0 0 0
67 2 31 0.0885 3.404088378129822 3.797155719310873 0.8066512900701011 0 0 0
55 2 19 0.1524 4.366013827161848 1.9601896905341436 2.6840647349849798 0 0 0
27 1 27 0.1436 2.7196408047413914 4.188835825772235 4.871159922200791 0 0 0
51 2 15 0.0105 2.905714858227509 6.381130407917796 1.362516810738806 0 0 0
38 2 2 0.114 5.545300436641844 2.2234526740762504 0.8761647854028058 0 0 0
1 1 1 -0.6817 1.6280784327697644 1.6179484959170611 2.2388452033135464 0 0 0
2 1 2 0.114 0.4511997198695625 1.8397122106933936 3.0743653637268324 0 0 0
177 5 33 0.07439999999999999 5.2671215470811426 8.206599297626376 -0.5045890261758631 0 0 0
126 4 18 0.1151 1.7841742227069433 6.720359246503558 4.232740373667941 0 0 0
69 2 33 0.07439999999999999 2.5379681437387176 5.977392839084066 2.341759916396617 0 0 0
9 1 9 0.2482 1.6970904645401779 3.69585790716616 4.887835591887581 0 0 0
49 2 13 -0.0145 4.181386426972882 4.410577799457631 1.3159281720496339 0 0 0
29 1 29 0.1655 -0.16800129551268228 3.573759661283508 2.0477804261609145 0 0 0
48 2 12 0.076 5.567992107529178 3.7724385440632244 1.0123777232344955 0 0 0
42 2 6 -0.405 6.281126571167267 1.447858969037321 4.393128824488768 0 0 0
66 2 30 0.0885 4.055906302535496 4.220296809611275 2.3796557721578284 0 0 0
72 2 36 0.0955 1.02476640039866 7.093515336862719 0.43784874616730024 0 0 0
11 1 11 -0.3168 1.1019813835047922 4.061786712538642 3.7158805134134343 0 0 0
12 1 12 0.076 -0.011112195001425176 3.316986992794189 3.10154312341694 0 0 0
47 2 11 -0.3168 6.455229954178353 4.2535800203212615 1.9889176776418713 0 0 0
45 2 9 0.2482 6.557691334575155 3.611071935843745 3.2378402669802244 0 0 0
120 4 12 0.076 0.6401957184462985 8.553022786057108 4.9775615192672555 0 0 0
139 4 31 0.0885 -0.5999930236550746 6.850200509003327 4.772513195838336 0 0 0
163 5 19 0.1524 6.459291751936009 7.35220177967838 4.805149050770652 0 0 0
341 10 17 0.4161 3.204025056255857 -0.642058264714434 10.622798612331513 0 0 0
342 10 18 0.1151 1.5188194571139986 0.7599675019934597 11.055382318517411 0 0 0
325 10 1 -0.6817 3.450964402277738 0.31465860234918575 10.652119661733842 0 0 0
326 10 2 0.114 2.499452205492538 0.9771221177560856 11.507553433440776 0 0 0
26 1 26 0.0982 4.649301201298375 0.4022877944546756 8.137861903532453 0 0 0
25 1 25 0.0982 3.2406639623228575 -0.3302106451808522 7.76841057216097 0 0 0
8 1 8 -0.2477 3.9767323214065238 0.36308236328153687 7.292066585033054 0 0 0
328 10 4 -0.6923 2.4182620416658867 -0.952509614151862 12.84838332455831 0 0 0
327 10 3 0.0994 2.6043870405453986 0.43403579759634603 12.994188356277158 0 0 0
345 10 21 0.1259 4.885695647298842 0.5563368986238368 12.847482344470812 0 0 0
24 1 24 0.0982 4.526194200611541 -0.10635087699385642 6.453353984216645 0 0 0
20 1 20 0.411 1.4765354909531954 -0.3898257915508606 5.382053468372646 0 0 0
141 4 33 0.07439999999999999 -2.787911037166834 6.674365800332234 6.34780166096914 0 0 0
140 4 32 0.07439999999999999 -1.8486810747329914 7.516429027830596 7.709726602164158 0 0 0
122 4 14 -0.3661 -1.6157004981980725 8.383298114485225 5.963451201058551 0 0 0
123 4 15 0.0105 -2.4777714261811012 7.650599617050375 6.799808388498735 0 0 0
143 4 35 0.0955 -4.494555520869521 7.681748529953286 7.4087359884408635 0 0 0
124 4 16 -0.2446 -3.7556338549239303 8.33649170516129 6.989943535911767 0 0 0
355 10 31 0.0885 0.7275518651395488 3.1059712389640506 11.021415638796258 0 0 0
449 13 17 0.4161 5.908321255792387 6.069616831924515 13.03606031612495 0 0 0
10 1 10 -0.6054 0.9233835843303344 4.047975822820828 6.014536941292893 0 0 0
390 11 30 0.0885 5.937654479345881 2.8077634905745548 10.750242336327812 0 0 0
111 4 3 0.0994 2.6827713032319687 7.626291868672227 6.057046988172586 0 0 0
391 11 31 0.0885 5.9449603083266185 2.7252182695553624 9.017826766347333 0 0 0
373 11 13 -0.0145 6.4940039480005884 3.204750939838042 9.846814540787534 0 0 0
128 4 20 0.411 4.570062345798409 7.064079869281838 6.487511892966467 0 0 0
6 1 6 -0.405 2.20411275080343 1.777410874574868 6.451164002483612 0 0 0
433 13 1 -0.6817 5.245570341697672 6.7174523380953755 13.119752051953762 0 0 0
394 11 34 0.0955 6.11140979444179 7.039440457685325 8.819416135203138 0 0 0
354 10 30 0.0885 1.3110996443950054 3.391806302800918 12.51914663744553 0 0 0
127 4 19 0.1524 2.2640882327221528 6.990357043518724 6.828880033248274 0 0 0
395 11 35 0.0955 5.986480670883908 7.070878880553085 10.548350210531526 0 0 0
337 10 13 -0.0145 1.612474500292365 3.5126659012282655 11.536930782651064 0 0 0
393 11 33 0.07439999999999999 4.568954790693936 4.663613375328956 9.137574691682074 0 0 0
22 1 22 0.0886 3.5870814464017116 2.466668252322958 7.8007545452958835 0 0 0
374 11 14 -0.3661 6.569025443994626 4.621948561713294 9.765851107980588 0 0 0
358 10 34 0.0955 0.2107538022310802 7.476782137947474 10.08295399613031 0 0 0
138 4 30 0.0885 -0.004086469931235626 7.221353187672866 6.415840558820018 0 0 0
112 4 4 -0.6923 3.918466444401825 6.900981168724878 5.795242346825221 0 0 0
357 10 33 0.07439999999999999 0.1719341945761934 5.0768610587214775 10.267995190730492 0 0 0
338 10 14 -0.3661 1.9108685380965014 4.829480620858671 11.168991066368287 0 0 0
335 10 11 -0.3168 3.899337194449482 2.9816284535234905 12.169808246529982 0 0 0
359 10 35 0.0955 1.9123491348650505 6.846810118339554 9.832157062564837 0 0 0
360 10 36 0.0955 1.4813130759575523 7.534528841557707 11.386286064618 0 0 0
392 11 32 0.07439999999999999 4.867867226038798 4.960557645750466 10.835499905986518 0 0 0
7 1 7 0.0059 3.5494253048176923 1.7848974388914978 6.956947706346942 0 0 0
28 1 28 0.4398 1.4664088759201 4.031142568357045 6.797127183730443 0 0 0
376 11 16 -0.2446 5.489182448177228 6.657048709937252 9.6424320752719 0 0 0
356 10 32 0.07439999999999999 0.21324482627608987 5.68165840748909 11.866738121038194 0 0 0
396 11 36 0.0955 4.43954487926261 6.980255052579258 9.632608070641645 0 0 0
353 10 29 0.1655 3.0452856304503517 2.7102417673313024 10.32110628721497 0 0 0
339 10 15 0.0105 0.7552317699543442 5.5722303075589945 10.949863711263149 0 0 0
340 10 16 -0.2446 1.0813597862400408 6.986512795823373 10.525665968179114 0 0 0
121 4 13 -0.0145 -0.46820686187026295 7.669777171761731 5.520411244360401 0 0 0
23 1 23 0.0886 4.280190837511888 2.126685919524437 6.321150406571933 0 0 0
375 11 15 0.0105 5.267496808304405 5.124750161696185 9.81250425238468 0 0 0
336 10 12 0.076 2.768895169870816 2.575252936988677 11.387082491857663 0 0 0
461 13 29 0.1655 2.6673522146588717 7.142710208203254 13.083065659248923 0 0 0
19 1 19 0.1524 0.09922976819943236 1.424629501261709 5.348619628849609 0 0 0
5 1 5 -0.0333 2.0718946078177796 2.1896697722684753 5.059323987176842 0 0 0
232 7 16 -0.2446 1.3029497012465283 9.458098250425323 -1.4901441206717025 0 0 0
251 7 35 0.0955 0.5034879590592611 9.065335052678625 -2.19879912196055 0 0 0
285 8 33 0.07439999999999999 6.352259151640652 13.245493650002711 -2.8560966128666063 0 0 0
250 7 34 0.0955 2.164732649271449 9.627699027010209 -2.081942011854215 0 0 0
144 4 36 0.0955 -4.228608466522284 8.731473171552693 6.038202521355196 0 0 0
174 5 30 0.0885 5.708532992962969 8.732783559919831 2.663487632547485 0 0 0
137 4 29 0.1655 0.2719165810617822 8.959803300040301 3.9700568513964836 0 0 0
258 8 6 -0.405 6.634460199206736 15.931012918952566 3.4060276307815656 0 0 0
272 8 20 0.411 6.267747545929862 13.49041413409307 4.213765346568567 0 0 0
172 5 28 0.4398 6.079792930586938 10.706040704056944 4.178616183005446 0 0 0
109 4 1 -0.6817 2.6399087554715206 8.680323388027887 3.9013713884198937 0 0 0
159 5 15 0.0105 5.247329678826926 9.100485565393555 0.12497146907448202 0 0 0
275 8 23 0.0886 6.313505928469924 16.415714495823494 5.401655491379396 0 0 0
634 18 22 0.0886 2.279012055656467 16.877125696503402 5.699490898113018 0 0 0
238 7 22 0.0886 2.8855133654230105 16.800460024467014 1.8080692882708411 0 0 0
639 18 27 0.1436 3.8713168504884794 15.012175507979883 6.113271691078179 0 0 0
180 5 36 0.0955 5.81694512102636 10.624865251176924 -1.285474335238689 0 0 0
271 8 19 0.1524 6.083051026784921 13.383323865274999 2.137947344695085 0 0 0
160 5 16 -0.2446 4.961147566812518 10.411169986854475 -0.6487585493279802 0 0 0
222 7 6 -0.405 1.876372164411928 15.737668707793745 3.238802026614472 0 0 0
233 7 17 0.4161 3.5072597840023003 12.303409633465101 5.441247836439476 0 0 0
217 7 1 -0.6817 3.7401205483947453 12.173700968411213 4.5740492252966884 0 0 0
234 7 18 0.1151 1.9449990547692024 11.251360843917249 4.171836129750576 0 0 0
244 7 28 0.4398 1.6558784032769285 13.469677121033165 0.1711341847669964 0 0 0
235 7 19 0.1524 0.7697410269517573 13.192450209787937 3.33638094627573 0 0 0
227 7 11 -0.3168 3.4525419420344012 12.751283854756174 1.6210823156802865 0 0 0
225 7 9 0.2482 2.8265391187330042 13.94877248185352 1.6951758143083235 0 0 0
221 7 5 -0.0333 2.6400323376874817 14.46512483508685 3.158300683712694 0 0 0
219 7 3 0.0994 1.7454791090349706 13.381514075066379 3.8745516593210865 0 0 0
218 7 2 0.114 2.548966010280553 12.062003124694485 3.8120044090860694 0 0 0
228 7 12 0.076 2.9303185379336796 11.61977809086664 2.349365428909847 0 0 0
119 4 11 -0.3168 0.9203575597164785 9.801423151068953 5.780808124756928 0 0 0
245 7 29 0.1655 3.825676040358358 11.003756087298084 2.3615371421850453 0 0 0
229 7 13 -0.0145 1.678615732015483 11.063661323062158 1.7033239627905918 0 0 0
226 7 10 -0.6054 1.6317538008450587 14.04899223966386 0.9263371704668 0 0 0
237 7 21 0.1259 3.6465532730236974 14.634696852095736 3.6034359343606956 0 0 0
230 7 14 -0.3661 1.954034091158817 10.886369323506909 0.28086231008632867 0 0 0
247 7 31 0.0885 1.5983815038853966 10.041858135277392 2.13608219754798 0 0 0
246 7 30 0.0885 0.7147879989558268 11.607950632876925 1.8048452840874443 0 0 0
249 7 33 0.07439999999999999 0.021714050970295967 10.014439922767393 0.17809181507697963 0 0 0
220 7 4 -0.6923 1.5391580341985391 13.725578286531222 5.222400558481869 0 0 0
243 7 27 0.1436 3.5639059503686186 14.646316796333972 1.3620703290649792 0 0 0
231 7 15 0.0105 0.7937750071678861 10.424150910269322 -0.43118810890130527 0 0 0
248 7 32 0.07439999999999999 0.3786146793748683 11.24767421299616 -0.9691118667505872 0 0 0
154 5 10 -0.6054 6.44151250503605 9.905060343736489 4.599916258869524 0 0 0
179 5 35 0.0955 4.108480597197947 10.266214090852843 -1.260746990416171 0 0 0
236 7 20 0.411 1.2251853058972988 14.645740121267194 5.242759045563227 0 0 0
178 5 34 0.0955 4.741733680747662 11.242330724955673 -0.08381569506916864 0 0 0
176 5 32 0.07439999999999999 4.355552545596139 8.972828413235165 0.8336102391880069 0 0 0
129 4 21 0.1259 3.616917489797614 9.589449863260375 5.954499323989271 0 0 0
158 5 14 -0.3661 6.4416778188196435 9.297488577208831 0.8566778559416274 0 0 0
262 8 10 -0.6054 6.658686694002046 15.484678724541752 0.3428746542389061 0 0 0
223 7 7 0.0059 2.620965092615308 16.880547170464666 2.8362627831213834 0 0 0
282 8 30 0.0885 6.614496438548108 13.22794482947264 -0.49652061735075415 0 0 0
256 8 4 -0.6923 6.850488586607806 12.865391205076937 3.9323222899686123 0 0 0
280 8 28 0.4398 6.854601353650765 15.757953400491308 -0.4898790721465724 0 0 0
241 7 25 0.0982 1.932163141121225 18.99509720256236 2.7263993890186513 0 0 0
638 18 26 0.0982 -0.18769151112868349 17.82779208507782 6.0794824011605435 0 0 0
242 7 26 0.0982 1.212960396106684 18.211987175591833 4.136702391601137 0 0 0
224 7 8 -0.2477 1.5894241027390443 18.043267361796822 3.083251842030441 0 0 0
239 7 23 0.0886 3.553994223469882 17.100486011248154 3.3920646993105508 0 0 0
240 7 24 0.0982 0.760539883449201 18.054666859493274 2.4935468243968613 0 0 0
576 16 36 0.0955 -3.060021929369081 11.028755971647168 12.07930622640468 0 0 0
142 4 34 0.0955 -3.62021655777634 9.236940279925628 7.669391379448867 0 0 0
574 16 34 0.0955 -1.8631020699991094 12.523962817177248 11.905579526335725 0 0 0
556 16 16 -0.2446 -2.306947689423253 11.703350725160144 12.505560771240699 0 0 0
589 17 13 -0.0145 3.785083607453576 14.737262009492857 13.129452983870394 0 0 0
113 4 5 -0.0333 3.0325555801645434 9.05240189866743 6.710861098563751 0 0 0
117 4 9 0.2482 1.6406707708151667 9.708141837752352 6.942475331063169 0 0 0
555 16 15 0.0105 -1.2729708968089022 10.767654655980795 13.118956749404743 0 0 0
637 18 25 0.0982 -0.0178962534500367 16.165390282538798 6.778851015626992 0 0 0
623 18 11 -0.3168 5.57696391159329 14.803943565725 7.140949199018764 0 0 0
573 16 33 0.07439999999999999 -0.7581540588882661 10.08644659589029 12.393966464758037 0 0 0
610 17 34 0.0955 0.4995836759647342 16.342308498615225 11.511184651813583 0 0 0
592 17 16 -0.2446 1.2287925158043467 15.906283509531328 10.848529493878813 0 0 0
612 17 36 0.0955 1.904520727195142 16.704147571774804 10.316377200316223 0 0 0
118 4 10 -0.6054 0.9634066029055461 9.084710849231637 7.948203395522009 0 0 0
136 4 28 0.4398 0.40168854250751734 9.727315238578768 8.267051723600668 0 0 0
618 18 6 -0.405 2.4509432722978213 16.733759183162906 7.899655977363247 0 0 0
130 4 22 0.0886 5.501652551685856 9.234452258390673 7.0293634624431025 0 0 0
624 18 12 0.076 6.476100387794583 15.327103852922518 8.148730026526385 0 0 0
115 4 7 0.0059 4.9273149214605905 9.538655323546305 7.968360277053434 0 0 0
501 14 33 0.07439999999999999 3.89653664264938 9.308288105554302 12.640978760800564 0 0 0
132 4 24 0.0982 5.680082273579989 11.553201753951688 7.866630896653654 0 0 0
499 14 31 0.0885 6.105967260919531 9.151347400431288 11.523155275615865 0 0 0
631 18 19 0.1524 4.342849345783783 16.050886937906842 9.710166524858408 0 0 0
611 17 35 0.0955 0.6578271433960313 15.425298646274923 9.953607265667792 0 0 0
590 17 14 -0.3661 3.048039519016887 15.62494774045729 12.317847410665445 0 0 0
615 18 3 0.0994 4.639539398519709 16.804342763871126 8.985828623910908 0 0 0
591 17 15 0.0105 2.1260531092698356 14.879370199191934 11.531863351167706 0 0 0
625 18 13 -0.0145 6.658859906553386 14.363286973640875 9.33702777353996 0 0 0
622 18 10 -0.6054 3.568694425313728 14.160546112037645 8.023801354478357 0 0 0
609 17 33 0.07439999999999999 2.7175564919202935 14.206097001468097 10.843600328207087 0 0 0
133 4 25 0.0982 4.5057018286411425 11.489921396084918 9.141622496683107 0 0 0
482 14 14 -0.3661 5.20455273404702 10.8613808757052 12.042139115994917 0 0 0
484 14 16 -0.2446 2.7026211706534657 10.909739115546149 11.486674727077459 0 0 0
504 14 36 0.0955 2.913221607971284 11.100804567819084 10.491087325737524 0 0 0
503 14 35 0.0955 1.7582164547266796 10.340972302174686 11.635099109829067 0 0 0
116 4 8 -0.2477 4.824854951788777 11.032554062333588 8.168972548555576 0 0 0
483 14 15 0.0105 3.899379652918051 10.333034489171732 12.440018469124302 0 0 0
607 17 31 0.0885 4.199963045994343 13.993797909341332 12.447173751546027 0 0 0
640 18 28 0.4398 2.606901119871234 14.13018412971624 7.857079975717477 0 0 0
131 4 23 0.0886 5.525959806441787 9.123853167118106 8.77649054448944 0 0 0
502 14 34 0.0955 2.4025107077102015 11.854982361558047 11.90053375498724 0 0 0
614 18 2 0.114 6.117022721967814 16.729185299561074 8.65908760102405 0 0 0
134 4 26 0.0982 3.9414795141404055 11.326892437971921 7.556786737250585 0 0 0
621 18 9 0.2482 4.177633411348474 15.101361847350054 7.228303573981425 0 0 0
617 18 5 -0.0333 3.853900662117051 16.57553463047031 7.7669835090297665 0 0 0
605 17 29 0.1655 5.639167619558257 15.625198953890349 12.877814210212806 0 0 0
608 17 32 0.07439999999999999 1.4067929940813273 14.369469891878468 12.272750367434421 0 0 0
643 18 31 0.0885 5.707648656632988 14.337926792402076 9.898130895071157 0 0 0
114 4 6 -0.405 3.6800702322735566 8.922349908728197 7.985387106367007 0 0 0
481 14 13 -0.0145 6.239037315208645 9.854849964141588 12.31209775968263 0 0 0
135 4 27 0.1436 1.8738654552452048 10.655067872101725 7.304921092443854 0 0 0
630 18 18 0.1151 6.669197989151384 16.975095875849796 9.538021623680153 0 0 0
633 18 21 0.1259 4.18752288663659 17.167603089490353 6.949181670542062 0 0 0
620 18 8 -0.2477 0.3868019447335279 17.209896054465286 6.862208607426427 0 0 0
619 18 7 0.0059 1.873123667331156 17.2956089892035 6.705870597963429 0 0 0
613 18 1 -0.6817 6.5181318746282795 17.72180322343565 7.683748263623352 0 0 0
632 18 20 0.411 3.6339460933615153 18.319641184803338 9.59590943086958 0 0 0
636 18 24 0.0982 0.027534928654699475 17.53305047534656 7.820084829774447 0 0 0
616 18 4 -0.6923 4.529975702634174 18.117387117260517 9.566157330273578 0 0 0
629 18 17 0.4161 6.445810129634799 18.642129236495776 8.002519708367657 0 0 0
635 18 23 0.0886 2.1438675294663274 18.33548994857844 6.633150156122317 0 0 0
62 2 26 0.0982 8.728331678021764 0.28122976604948985 4.1848540525941385 0 0 0
73 3 1 -0.6817 11.332033076998256 1.2550236387498428 -1.2051381689049356 0 0 0
92 3 20 0.411 10.360162346949219 -0.19592207339811427 2.1020502611337553 0 0 0
89 3 17 0.4161 11.2441169412222 0.33065992084857887 -0.9930925821737748 0 0 0
76 3 4 -0.6923 9.885344385906675 0.10402035061767283 1.2679952448912581 0 0 0
60 2 24 0.0982 7.743084456008579 -0.7924217592346934 5.1795264436708015 0 0 0
44 2 8 -0.2477 8.271118730031855 0.14438258304936966 5.1288314773894745 0 0 0
79 3 7 0.0059 12.462128079238095 2.0754182482192594 3.723902780533292 0 0 0
173 5 29 0.1655 8.68013096481109 8.311037254728367 1.7622159829726185 0 0 0
57 2 21 0.1259 7.43283566102929 1.6166233733518989 2.6887211450329573 0 0 0
93 3 21 0.1259 12.198211866213626 1.4500044439393993 1.2426897736996074 0 0 0
91 3 19 0.1524 9.345341133900131 1.958886267931955 1.423738627055402 0 0 0
156 5 12 0.076 7.962498390334174 8.42216704221863 2.5795927541656125 0 0 0
83 3 11 -0.3168 11.359689403631172 3.929743974877349 -0.05131524922311932 0 0 0
86 3 14 -0.3661 9.282202638828462 5.494123500216025 -0.884486324635551 0 0 0
85 3 13 -0.0145 9.034797741498187 4.150505666225751 -0.7012534745135134 0 0 0
81 3 9 0.2482 11.43825370277132 3.5564450918768844 1.2484265249152666 0 0 0
198 6 18 0.1151 13.532009717400072 5.876465007860016 0.7508137513979843 0 0 0
82 3 10 -0.6054 10.514292502662402 4.2027177690751785 2.000164845707356 0 0 0
100 3 28 0.4398 10.518144966171686 5.148595853459934 1.8131462668611982 0 0 0
102 3 30 0.0885 8.530502223963973 3.933609694595733 0.2066467183061896 0 0 0
106 3 34 0.0955 9.228806892971193 8.095753388684967 -0.32149185046355344 0 0 0
145 5 1 -0.6817 9.619895091678227 7.0648115615248965 3.478018556091584 0 0 0
183 6 3 0.0994 13.859866837551005 6.598722011190581 2.6942884270042726 0 0 0
199 6 19 0.1524 12.79756905405858 6.703493493220878 2.9147079336723634 0 0 0
99 3 27 0.1436 12.390846303775707 3.9164365303832183 1.6812080426310585 0 0 0
103 3 31 0.0885 8.373775811103112 3.839310567695662 -1.5337035953572717 0 0 0
101 3 29 0.1655 10.679711675075087 3.4435054341123736 -1.9031738571023527 0 0 0
84 3 12 0.076 10.336104136112079 3.3528709468898694 -0.8271153810529706 0 0 0
88 3 16 -0.2446 8.505507559593237 7.713413295939811 -1.0963361294644054 0 0 0
107 3 35 0.0955 7.689393370970252 8.44830318766947 -1.1741959582780053 0 0 0
146 5 2 0.114 8.218671579932973 7.150428027219238 3.414361770624425 0 0 0
162 5 18 0.1151 7.880813192231919 6.241336104069261 2.85185112032288 0 0 0
104 3 32 0.07439999999999999 7.645507908809206 6.125541763632976 0.15853948117917438 0 0 0
105 3 33 0.07439999999999999 7.345706728621847 5.825262369687608 -1.590631783694025 0 0 0
87 3 15 0.0105 8.102075413860105 6.225658274416347 -0.8583736856588672 0 0 0
108 3 36 0.0955 9.05228331561712 7.7910852890854 -2.0663310590548196 0 0 0
75 3 3 0.0994 10.142126933498954 1.4928674785001326 0.9349294239478864 0 0 0
90 3 18 0.1151 9.233373191180243 1.5016802153445425 -1.059975842002494 0 0 0
74 3 2 0.114 10.18047124413749 1.835309297594487 -0.5995629884350264 0 0 0
78 3 6 -0.405 11.300922985267388 1.9602219634111067 3.0041879993217346 0 0 0
211 6 31 0.0885 12.021308106275878 7.085855868131024 -0.18104372225212698 0 0 0
210 6 30 0.0885 11.499469676315302 8.226895825317023 1.0888614026915544 0 0 0
63 2 27 0.1436 7.52163633058609 3.9038632620923597 3.587224766130796 0 0 0
192 6 12 0.076 13.72357574592231 8.072775679315008 0.6033949724067091 0 0 0
193 6 13 -0.0145 12.225714084964576 8.080392871001823 0.2796583096625189 0 0 0
77 3 5 -0.0333 11.423403272643577 2.008456077407789 1.5836388302874347 0 0 0
95 3 23 0.0886 13.201434347291729 1.410677042913949 3.1994761465149644 0 0 0
94 3 22 0.0886 12.862204650325069 2.9907504260986704 3.6305486265653735 0 0 0
161 5 17 0.4161 9.782358579332978 6.3170781991481935 4.051427782656722 0 0 0
80 3 8 -0.2477 12.108107168860679 1.8796616820442424 5.224255932479015 0 0 0
147 5 3 0.0994 7.597532576162381 7.348180077224273 4.8154993795752565 0 0 0
200 6 20 0.411 14.351611705708327 5.36734787127231 4.124306277913347 0 0 0
181 6 1 -0.6817 15.590378733176872 6.465504634117468 0.925835135124984 0 0 0
197 6 17 0.4161 15.66310304893376 5.525492323539064 0.9409734411312557 0 0 0
182 6 2 0.114 14.212391344239663 6.698877043923347 1.232965840451695 0 0 0
185 6 5 -0.0333 14.614352324960874 7.755185410192839 3.3482846097470906 0 0 0
184 6 4 -0.6923 14.378313228794033 5.345529252607359 3.188650614662067 0 0 0
201 6 21 0.1259 15.631553372416993 7.524855892021189 3.1222468308907976 0 0 0
209 6 29 0.1655 14.254682020091705 8.09353019269335 -0.37878040811133823 0 0 0
186 6 6 -0.405 14.268315900654386 7.7358357493485865 4.7326205870913345 0 0 0
365 11 5 -0.0333 8.870240898870248 1.2276957677290743 12.37703587943468 0 0 0
379 11 19 0.1524 6.913195176937745 0.6598892371953843 11.581635513938492 0 0 0
97 3 25 0.0982 11.992200210222194 0.836953235180738 5.387464350043362 0 0 0
61 2 25 0.0982 8.979718325919139 0.14727354322759026 5.813931360564097 0 0 0
362 11 2 0.114 8.210247078970227 1.2062154733331285 9.908523272935897 0 0 0
361 11 1 -0.6817 9.547243284113048 0.8854012337042052 9.572999161706566 0 0 0
381 11 21 0.1259 9.789198445490612 0.9674091767966657 12.094361544216953 0 0 0
378 11 18 0.1151 7.5844487301976615 0.7454075122502498 9.167430969913278 0 0 0
363 11 3 0.0994 7.966474444469044 0.6285710206228197 11.313224794627075 0 0 0
377 11 17 0.4161 9.589660269457834 -0.05504920237848165 9.387046647479313 0 0 0
364 11 4 -0.6923 8.22767066332121 -0.7986622311481373 11.23869012781977 0 0 0
380 11 20 0.411 8.30120926197409 -1.2062224007138425 12.077315601116199 0 0 0
150 5 6 -0.405 7.875976627335888 8.694487643960356 6.7745695659341765 0 0 0
399 12 3 0.0994 12.877600689732965 3.8207546273365742 13.225061446015648 0 0 0
387 11 27 0.1436 9.54731869242637 3.2313832408533196 12.924311108140929 0 0 0
370 11 10 -0.6054 7.640096634609279 3.036772814987129 13.094455677008469 0 0 0
423 12 27 0.1436 11.611969782212798 6.938596824844169 12.69018414789132 0 0 0
170 5 26 0.0982 8.974101420445406 8.173249015884142 9.325178365270455 0 0 0
405 12 9 0.2482 11.828486648039036 5.884285590862915 12.391365395885522 0 0 0