ITEM: TIMESTEP
0
ITEM: NUMBER OF ATOMS
972
ITEM: BOX BOUNDS pp pp pp
-2.6800000000000001e+01 4.2000000000000000e+01
-2.1199999999999999e+01 4.1600000000000001e+01
-2.5199999999999999e+01 5.3799999999999997e+01
ITEM: ATOMS id mol type element mass x y z ix iy iz
20 1 20 H 1.008 2.47623 0.982102 5.08915 0 0 0
4 1 4 O 15.999 2.69377 1.01277 4.16643 0 0 0
3 1 3 C 12.011 2.81301 2.3755 3.78163 0 0 0
56 2 20 H 1.008 7.20025 0.76332 5.17036 0 0 0
18 1 18 H 1.008 2.59266 1.98689 1.65639 0 0 0
17 1 17 H 1.008 4.46599 0.899711 2.52101 0 0 0
1 1 1 O 15.999 4.55818 1.78215 2.18082 0 0 0
141 4 33 H 1.008 -1.41053 9.96107 1.74595 0 0 0
174 5 30 H 1.008 5.76974 10.1197 2.98523 0 0 0
157 5 13 C 12.011 6.37786 9.83882 2.12687 0 0 0
46 2 10 O 15.999 7.29682 4.99344 4.12361 0 0 0
64 2 28 H 1.008 7.1414 5.28308 5.01269 0 0 0
33 1 33 H 1.008 1.10148 6.27874 -0.25242 0 0 0
129 4 21 H 1.008 4.81904 10.0564 5.16445 0 0 0
19 1 19 H 1.008 1.82966 2.84725 3.84887 0 0 0
31 1 31 H 1.008 1.82938 4.13412 0.610609 0 0 0
30 1 30 H 1.008 1.61004 4.86662 2.1931 0 0 0
13 1 13 C 12.011 2.33332 4.70106 1.39467 0 0 0
163 5 19 H 1.008 6.65091 8.92273 5.10752 0 0 0
5 1 5 C 12.011 3.78624 3.13018 4.69395 0 0 0
29 1 29 H 1.008 4.21901 3.88388 1.02883 0 0 0
12 1 12 C 12.011 3.56209 3.92625 1.89687 0 0 0
2 1 2 C 12.011 3.31411 2.45939 2.32638 0 0 0
67 2 31 H 1.008 6.91252 3.29867 0.42968 0 0 0
66 2 30 H 1.008 6.47798 4.039 1.94952 0 0 0
69 2 33 H 1.008 5.72285 5.29835 -0.362717 0 0 0
9 1 9 C 12.011 3.87812 4.59197 4.21877 0 0 0
28 1 28 H 1.008 2.63751 5.45007 5.38129 0 0 0
10 1 10 O 15.999 2.67968 5.24787 4.45307 0 0 0
32 1 32 H 1.008 1.23455 7.1938 1.24886 0 0 0
36 1 36 H 1.008 2.97015 7.54026 -1.26634 0 0 0
35 1 35 H 1.008 1.78641 8.69927 -0.661969 0 0 0
34 1 34 H 1.008 3.27639 8.38954 0.236805 0 0 0
16 1 16 C 12.011 2.49483 7.92563 -0.363963 0 0 0
70 2 34 H 1.008 7.43011 7.81454 0.0297177 0 0 0
15 1 15 C 12.011 1.80076 6.79966 0.404339 0 0 0
14 1 14 O 15.999 2.81406 5.93032 0.867414 0 0 0
139 4 31 H 1.008 0.373541 8.89117 2.80605 0 0 0
138 4 30 H 1.008 0.40564 10.1481 4.02345 0 0 0
121 4 13 C 12.011 0.811099 9.85867 3.05432 0 0 0
27 1 27 H 1.008 4.65776 5.10118 4.78909 0 0 0
11 1 11 O 15.999 4.27885 4.68253 2.88403 0 0 0
21 1 21 H 1.008 4.76672 2.66071 4.6075 0 0 0
137 4 29 H 1.008 2.62482 9.56817 2.05897 0 0 0
126 4 18 H 1.008 2.15148 7.6894 3.78175 0 0 0
125 4 17 H 1.008 4.02917 7.19101 3.05447 0 0 0
120 4 12 C 12.011 2.34447 9.73003 3.09684 0 0 0
110 4 2 C 12.011 2.8664 8.50779 3.89543 0 0 0
49 2 13 C 12.011 7.26862 3.97624 1.20665 0 0 0
109 4 1 O 15.999 4.10857 8.09782 3.33407 0 0 0
111 4 3 C 12.011 3.04484 8.81154 5.39433 0 0 0
68 2 32 H 1.008 5.77829 6.22474 1.1332 0 0 0
113 4 5 C 12.011 3.81596 10.1304 5.57919 0 0 0
71 2 35 H 1.008 5.89697 7.76173 -0.837077 0 0 0
72 2 36 H 1.008 7.29892 6.88769 -1.45626 0 0 0
52 2 16 C 12.011 6.76802 7.1736 -0.548197 0 0 0
51 2 15 C 12.011 6.35757 5.93839 0.25266 0 0 0
175 5 31 H 1.008 5.89463 8.97506 1.67014 0 0 0
162 5 18 H 1.008 7.11236 7.50911 3.20793 0 0 0
55 2 19 H 1.008 6.67711 2.41178 3.60685 0 0 0
50 2 14 O 15.999 7.53636 5.2569 0.64677 0 0 0
23 1 23 H 1.008 5.01054 2.20483 6.87648 0 0 0
341 10 17 H 1.008 4.82554 0.938909 12.5803 0 0 0
327 10 3 C 12.011 2.67276 2.06936 13.7562 0 0 0
325 10 1 O 15.999 4.79423 1.88639 12.5566 0 0 0
343 10 19 H 1.008 1.62572 2.34685 13.6086 0 0 0
26 1 26 H 1.008 3.10636 2.33922 8.54925 0 0 0
326 10 2 C 12.011 3.43716 2.30335 12.4405 0 0 0
342 10 18 H 1.008 2.96735 1.73343 11.635 0 0 0
374 11 14 O 15.999 7.17791 5.65468 11.0948 0 0 0
62 2 26 H 1.008 7.09664 2.65237 8.55229 0 0 0
60 2 24 H 1.008 7.05758 4.38082 8.18844 0 0 0
396 11 36 H 1.008 7.05626 6.86969 8.73566 0 0 0
391 11 31 H 1.008 6.58732 3.6919 11.2847 0 0 0
133 4 25 H 1.008 5.60154 10.0726 9.71695 0 0 0
376 11 16 C 12.011 6.33822 7.20051 9.48669 0 0 0
481 14 13 C 12.011 7.36175 9.95751 12.6682 0 0 0
434 13 2 C 12.011 3.80488 8.0367 13.8106 0 0 0
450 13 18 H 1.008 3.27605 7.17262 13.3986 0 0 0
461 13 29 H 1.008 4.22558 9.04635 11.9837 0 0 0
356 10 32 H 1.008 0.637227 6.41467 10.6138 0 0 0
360 10 36 H 1.008 2.75425 6.84154 8.41729 0 0 0
359 10 35 H 1.008 1.2011 7.66456 8.49781 0 0 0
358 10 34 H 1.008 2.42576 7.96764 9.7213 0 0 0
340 10 16 C 12.011 1.98034 7.19589 9.09852 0 0 0
339 10 15 C 12.011 1.42769 6.05571 9.95235 0 0 0
338 10 14 O 15.999 2.50072 5.53033 10.7133 0 0 0
6 1 6 O 15.999 3.33225 3.08443 6.04434 0 0 0
449 13 17 H 1.008 5.32363 6.8193 13.8394 0 0 0
463 13 31 H 1.008 1.81541 8.40567 11.9725 0 0 0
462 13 30 H 1.008 1.47912 9.73838 13.0554 0 0 0
445 13 13 C 12.011 2.1785 9.38045 12.301 0 0 0
465 13 33 H 1.008 0.414125 9.57471 10.4618 0 0 0
353 10 29 H 1.008 4.2223 3.90772 11.3018 0 0 0
336 10 12 C 12.011 3.45607 3.79746 12.0632 0 0 0
394 11 34 H 1.008 6.77321 8.04778 10.0121 0 0 0
433 13 1 O 15.999 5.20032 7.76084 13.8553 0 0 0
390 11 30 H 1.008 6.25959 4.69289 12.6859 0 0 0
444 13 12 C 12.011 3.60556 9.23634 12.8599 0 0 0
355 10 31 H 1.008 1.83638 3.586 10.6461 0 0 0
354 10 30 H 1.008 1.3606 4.45977 12.0851 0 0 0
337 10 13 C 12.011 2.17813 4.31752 11.3794 0 0 0
357 10 33 H 1.008 0.995589 5.29327 9.30143 0 0 0
134 4 26 H 1.008 3.96299 9.5519 9.37778 0 0 0
395 11 35 H 1.008 5.44587 7.53982 8.96249 0 0 0
499 14 31 H 1.008 6.88993 9.09205 12.2028 0 0 0
375 11 15 C 12.011 5.98441 6.08681 10.4652 0 0 0
392 11 32 H 1.008 5.26474 6.4416 11.2063 0 0 0
112 4 4 O 15.999 3.6863 7.70813 6.03238 0 0 0
128 4 20 H 1.008 4.58916 7.68153 5.74531 0 0 0
373 11 13 C 12.011 6.98361 4.50102 11.8993 0 0 0
335 10 11 O 15.999 3.89301 4.61355 13.1548 0 0 0
127 4 19 H 1.008 2.0586 8.94285 5.84411 0 0 0
131 4 23 H 1.008 5.43644 9.23141 7.37637 0 0 0
393 11 33 H 1.008 5.51301 5.27285 9.91461 0 0 0
24 1 24 H 1.008 3.24992 4.09894 8.52298 0 0 0
8 1 8 C 12.011 3.79587 3.16614 8.38207 0 0 0
25 1 25 H 1.008 4.57737 3.11182 9.13818 0 0 0
22 1 22 H 1.008 5.05572 3.95993 6.82184 0 0 0
7 1 7 C 12.011 4.39817 3.1035 6.98242 0 0 0
115 4 7 C 12.011 5.04185 10.216 7.62864 0 0 0
446 13 14 O 15.999 2.23156 10.265 11.191 0 0 0
40 2 4 O 15.999 7.59075 0.708722 4.30855 0 0 0
37 2 1 O 15.999 9.72717 1.45988 2.57234 0 0 0
53 2 17 H 1.008 9.659 0.630456 3.03144 0 0 0
91 3 19 H 1.008 11.4555 2.05917 4.6003 0 0 0
75 3 3 C 12.011 12.4517 1.71953 4.87327 0 0 0
76 3 4 O 15.999 12.3564 0.40118 5.40593 0 0 0
92 3 20 H 1.008 13.1672 0.187665 5.84252 0 0 0
38 2 2 C 12.011 8.41333 1.99129 2.42485 0 0 0
39 2 3 C 12.011 7.68067 2.02427 3.77807 0 0 0
54 2 18 H 1.008 7.86046 1.36152 1.72428 0 0 0
73 3 1 O 15.999 14.5537 1.078 3.8364 0 0 0
74 3 2 C 12.011 13.2895 1.67847 3.57883 0 0 0
89 3 17 H 1.008 14.4399 0.138659 3.86322 0 0 0
90 3 18 H 1.008 12.7647 1.08106 2.82822 0 0 0
82 3 10 O 15.999 11.9547 4.69336 4.98476 0 0 0
100 3 28 H 1.008 11.7245 5.13699 5.79063 0 0 0
181 6 1 O 15.999 13.9324 7.18084 4.31517 0 0 0
182 6 2 C 12.011 12.7902 8.025 4.41132 0 0 0
198 6 18 H 1.008 11.9111 7.46457 4.07858 0 0 0
183 6 3 C 12.011 12.609 8.43321 5.88512 0 0 0
165 5 21 H 1.008 9.64108 9.50311 5.19533 0 0 0
81 3 9 C 12.011 13.1962 4.0982 5.17719 0 0 0
99 3 27 H 1.008 13.7791 4.74751 5.8354 0 0 0
57 2 21 H 1.008 9.41423 2.56299 4.90063 0 0 0
147 5 3 C 12.011 7.68294 8.60776 4.97966 0 0 0
148 5 4 O 15.999 7.90426 7.48073 5.82092 0 0 0
164 5 20 H 1.008 8.82665 7.26616 5.77261 0 0 0
77 3 5 C 12.011 13.0482 2.73417 5.87431 0 0 0
149 5 5 C 12.011 8.59937 9.78691 5.34613 0 0 0
156 5 12 C 12.011 7.80394 9.46612 2.56516 0 0 0
193 6 13 C 12.011 11.7414 9.87512 2.89382 0 0 0
211 6 31 H 1.008 11.1058 9.08209 2.5016 0 0 0
86 3 14 O 15.999 12.7284 4.91593 1.62253 0 0 0
192 6 12 C 12.011 13.0195 9.2562 3.48323 0 0 0
197 6 17 H 1.008 13.7627 6.50032 3.6705 0 0 0
209 6 29 H 1.008 13.5661 8.89798 2.61222 0 0 0
83 3 11 O 15.999 13.9507 4.02133 4.00572 0 0 0
87 3 15 C 12.011 11.6366 5.56437 0.994007 0 0 0
88 3 16 C 12.011 12.1442 6.83856 0.320402 0 0 0
106 3 34 H 1.008 12.6057 7.5064 1.04428 0 0 0
107 3 35 H 1.008 11.3287 7.37953 -0.159865 0 0 0
108 3 36 H 1.008 12.89 6.607 -0.440014 0 0 0
104 3 32 H 1.008 10.8793 5.81131 1.7376 0 0 0
145 5 1 O 15.999 9.16309 7.62702 3.34075 0 0 0
146 5 2 C 12.011 7.88342 8.22921 3.50037 0 0 0
161 5 17 H 1.008 9.05362 6.84334 2.81176 0 0 0
173 5 29 H 1.008 8.31558 9.20942 1.63932 0 0 0
45 2 9 C 12.011 8.52785 4.35968 4.10024 0 0 0
47 2 11 O 15.999 9.08581 4.3326 2.81917 0 0 0
63 2 27 H 1.008 9.2257 4.95691 4.69128 0 0 0
85 3 13 C 12.011 12.3756 3.64102 2.15018 0 0 0
103 3 31 H 1.008 12.1492 2.95334 1.33429 0 0 0
84 3 12 C 12.011 13.5377 3.09232 2.99794 0 0 0
101 3 29 H 1.008 14.3791 3.02211 2.30838 0 0 0
102 3 30 H 1.008 11.4723 3.70505 2.75265 0 0 0
48 2 12 C 12.011 8.5501 3.42064 1.85021 0 0 0
65 2 29 H 1.008 9.28092 3.3767 1.04304 0 0 0
41 2 5 C 12.011 8.41412 2.96284 4.7424 0 0 0
105 3 33 H 1.008 11.1713 4.9128 0.252395 0 0 0
413 12 17 H 1.008 14.5315 1.46112 13.4533 0 0 0
79 3 7 C 12.011 12.2619 1.98704 8.03664 0 0 0
97 3 25 H 1.008 11.7413 1.9187 10.1492 0 0 0
94 3 22 H 1.008 13.2749 1.6125 8.19322 0 0 0
414 12 18 H 1.008 12.6839 2.37311 12.7086 0 0 0
378 11 18 H 1.008 7.78047 1.96648 12.3587 0 0 0
361 11 1 O 15.999 9.69607 2.19439 13.0362 0 0 0
377 11 17 H 1.008 9.75426 1.36761 13.5041 0 0 0
95 3 23 H 1.008 11.6317 1.14004 7.76043 0 0 0
517 15 13 C 12.011 12.4609 10.2281 13.0871 0 0 0
150 5 6 O 15.999 8.36666 10.2306 6.67898 0 0 0
480 14 12 C 12.011 8.73879 9.58483 13.2457 0 0 0
206 6 26 H 1.008 14.1715 9.6102 10.24 0 0 0
428 12 32 H 1.008 10.3255 6.81139 11.4357 0 0 0
432 12 36 H 1.008 12.7116 7.45398 9.58958 0 0 0
431 12 35 H 1.008 11.0712 7.98273 9.30404 0 0 0
430 12 34 H 1.008 11.9632 8.60352 10.6865 0 0 0
412 12 16 C 12.011 11.7776 7.71427 10.0885 0 0 0
411 12 15 C 12.011 11.2555 6.54722 10.9294 0 0 0
533 15 29 H 1.008 14.3128 9.34796 12.6867 0 0 0
80 3 8 C 12.011 11.7514 2.63314 9.32556 0 0 0
425 12 29 H 1.008 14.0446 4.52114 12.4009 0 0 0
408 12 12 C 12.011 13.2786 4.40277 13.1675 0 0 0
516 15 12 C 12.011 13.8382 9.75629 13.5781 0 0 0
169 5 25 H 1.008 9.47931 9.78963 9.77967 0 0 0
98 3 26 H 1.008 10.7385 3.01282 9.20155 0 0 0
427 12 31 H 1.008 11.6353 4.2102 11.7938 0 0 0
409 12 13 C 12.011 11.9912 4.9428 12.5179 0 0 0
43 2 7 C 12.011 8.57173 3.28602 7.08783 0 0 0
61 2 25 H 1.008 8.33425 3.72734 9.20114 0 0 0
58 2 22 H 1.008 9.21219 4.15294 6.91497 0 0 0
535 15 31 H 1.008 11.8412 9.36495 12.8459 0 0 0
389 11 29 H 1.008 9.02497 4.10473 11.6699 0 0 0
372 11 12 C 12.011 8.32495 4.06953 12.5034 0 0 0
362 11 2 C 12.011 8.33742 2.61831 13.0355 0 0 0
426 12 30 H 1.008 11.1973 5.05065 13.2496 0 0 0
429 12 33 H 1.008 11.0309 5.71699 10.2571 0 0 0
78 3 6 O 15.999 12.2278 2.97712 7.02209 0 0 0
93 3 21 H 1.008 14.0523 2.42204 6.17015 0 0 0
184 6 4 O 15.999 12.5324 7.28939 6.72765 0 0 0
185 6 5 C 12.011 13.7657 9.36116 6.28305 0 0 0
199 6 19 H 1.008 11.673 8.9766 5.98254 0 0 0
200 6 20 H 1.008 13.4128 6.95223 6.81864 0 0 0
201 6 21 H 1.008 14.7059 8.84222 6.07785 0 0 0
203 6 23 H 1.008 15.5423 8.98879 8.19578 0 0 0
151 5 7 C 12.011 9.31389 9.75556 7.62149 0 0 0
42 2 6 O 15.999 7.70934 3.04584 5.98347 0 0 0
170 5 26 H 1.008 7.83166 9.89488 9.18958 0 0 0
410 12 14 O 15.999 12.2568 6.18311 11.8702 0 0 0
96 3 24 H 1.008 12.3882 3.47055 9.61155 0 0 0
371 11 11 O 15.999 8.80797 5.02074 13.4643 0 0 0
167 5 23 H 1.008 9.38171 8.66761 7.60317 0 0 0
186 6 6 O 15.999 13.6881 9.72914 7.65901 0 0 0
497 14 29 H 1.008 9.3023 9.20755 12.3942 0 0 0
59 2 23 H 1.008 9.23181 2.42831 7.2392 0 0 0
398 12 2 C 12.011 13.2209 2.896 13.5044 0 0 0
397 12 1 O 15.999 14.5547 2.40327 13.5441 0 0 0
44 2 8 C 12.011 7.71325 3.52248 8.32924 0 0 0
152 5 8 C 12.011 8.85286 10.2116 8.9975 0 0 0
166 5 22 H 1.008 10.3088 10.1539 7.41285 0 0 0
187 6 7 C 12.011 14.9696 9.91681 8.2476 0 0 0
485 14 17 H 1.008 10.2468 7.34718 13.8649 0 0 0
249 7 33 H 1.008 -3.2667 13.9508 2.3849 0 0 0
143 4 35 H 1.008 -2.26962 11.957 0.498296 0 0 0
248 7 32 H 1.008 -3.34369 15.6678 2.78374 0 0 0
252 7 36 H 1.008 -3.47877 14.5127 -0.0613731 0 0 0
251 7 35 H 1.008 -4.85938 15.1296 0.848368 0 0 0
250 7 34 H 1.008 -3.57115 16.2235 0.345364 0 0 0
232 7 16 C 12.011 -3.78162 15.2185 0.7122 0 0 0
231 7 15 C 12.011 -3.03486 14.9525 2.0189 0 0 0
230 7 14 O 15.999 -1.64913 15.0829 1.75953 0 0 0
140 4 32 H 1.008 -1.38369 11.3877 2.77566 0 0 0
144 4 36 H 1.008 -0.797225 11.3363 -0.245508 0 0 0
142 4 34 H 1.008 -0.740185 12.7845 0.749007 0 0 0
124 4 16 C 12.011 -1.20166 11.8029 0.65286 0 0 0
123 4 15 C 12.011 -0.941473 10.9366 1.88612 0 0 0
247 7 31 H 1.008 -1.0004 13.7339 3.16188 0 0 0
246 7 30 H 1.008 -1.13644 15.3722 3.75009 0 0 0
229 7 13 C 12.011 -0.842342 14.7768 2.887 0 0 0
226 7 10 O 15.999 -0.00246317 17.5589 3.98915 0 0 0
117 4 9 C 12.011 3.11442 11.2625 4.8158 0 0 0
122 4 14 O 15.999 0.459787 10.8037 2.05119 0 0 0
119 4 11 O 15.999 2.97968 10.9631 3.45711 0 0 0
237 7 21 H 1.008 3.16683 16.618 3.73319 0 0 0
221 7 5 C 12.011 2.23749 16.6765 4.29688 0 0 0
245 7 29 H 1.008 0.76998 14.4772 1.57479 0 0 0
234 7 18 H 1.008 1.217 13.405 3.8576 0 0 0
233 7 17 H 1.008 2.84395 13.2759 2.50386 0 0 0
228 7 12 C 12.011 0.639416 14.9968 2.52313 0 0 0
218 7 2 C 12.011 1.62195 14.3663 3.53653 0 0 0
217 7 1 O 15.999 2.87022 14.1424 2.88865 0 0 0
176 5 32 H 1.008 4.71576 11.883 1.7477 0 0 0
180 5 36 H 1.008 5.64248 11.9054 -1.18031 0 0 0
179 5 35 H 1.008 4.34081 12.8862 -0.503146 0 0 0
178 5 34 H 1.008 6.01434 13.1694 -0.0221377 0 0 0
160 5 16 C 12.011 5.28911 12.3991 -0.275237 0 0 0
159 5 15 C 12.011 5.14192 11.3984 0.868769 0 0 0
158 5 14 O 15.999 6.42807 10.8959 1.18013 0 0 0
283 8 31 H 1.008 4.22195 15.3945 0.933213 0 0 0
282 8 30 H 1.008 4.45353 16.8511 1.87224 0 0 0
265 8 13 C 12.011 4.88189 16.2514 1.07209 0 0 0
285 8 33 H 1.008 2.92144 16.7754 -0.588054 0 0 0
225 7 9 C 12.011 1.17335 17.234 3.3261 0 0 0
227 7 11 O 15.999 0.956872 16.3697 2.24598 0 0 0
266 8 14 O 15.999 4.93044 16.9982 -0.133857 0 0 0
219 7 3 C 12.011 1.82317 15.2707 4.76414 0 0 0
271 8 19 H 1.008 5.26065 15.99 4.02407 0 0 0
270 8 18 H 1.008 5.47876 14.0747 2.50959 0 0 0
177 5 33 H 1.008 4.46692 10.593 0.575243 0 0 0
264 8 12 C 12.011 6.29742 15.7715 1.44536 0 0 0
255 8 3 C 12.011 6.22162 15.4838 3.97241 0 0 0
281 8 29 H 1.008 6.66415 15.2595 0.558057 0 0 0
254 8 2 C 12.011 6.32051 14.7622 2.61602 0 0 0
267 8 15 C 12.011 3.67519 17.5574 -0.478406 0 0 0
288 8 36 H 1.008 4.18085 17.6517 -2.58823 0 0 0
244 7 28 H 1.008 0.202836 18.1763 4.67867 0 0 0
243 7 27 H 1.008 1.56494 18.1594 2.8963 0 0 0
280 8 28 H 1.008 6.29747 18.9526 3.72576 0 0 0
262 8 10 O 15.999 6.12166 18.3639 3.0048 0 0 0
268 8 16 C 12.011 3.84674 18.3181 -1.79297 0 0 0
286 8 34 H 1.008 4.59099 19.1079 -1.68664 0 0 0
287 8 35 H 1.008 2.91002 18.7779 -2.10752 0 0 0
284 8 32 H 1.008 3.33452 18.2365 0.305474 0 0 0
443 13 11 O 15.999 4.09637 10.4587 13.4264 0 0 0
464 13 32 H 1.008 0.38191 11.1675 11.2177 0 0 0
116 4 8 C 12.011 4.72157 10.2837 9.11548 0 0 0
256 8 4 O 15.999 6.27382 14.5136 5.00901 0 0 0
498 14 30 H 1.008 6.68743 10.2754 13.4625 0 0 0
549 16 9 C 12.011 2.1979 16.6547 13.8306 0 0 0
550 16 10 O 15.999 0.866573 16.2931 13.6631 0 0 0
501 14 33 H 1.008 5.51953 11.4061 11.5664 0 0 0
612 17 36 H 1.008 4.09508 14.5256 9.19586 0 0 0
611 17 35 H 1.008 3.43908 15.7587 8.14142 0 0 0
610 17 34 H 1.008 5.03926 15.101 7.82614 0 0 0
592 17 16 C 12.011 4.3561 15.4101 8.61676 0 0 0
591 17 15 C 12.011 4.96309 16.5027 9.50043 0 0 0
590 17 14 O 15.999 6.13028 15.9819 10.1139 0 0 0
551 16 11 O 15.999 2.97867 16.3591 12.7091 0 0 0
554 16 14 O 15.999 1.8461 14.8989 10.5405 0 0 0
223 7 7 C 12.011 3.68432 17.8385 5.80425 0 0 0
569 16 29 H 1.008 4.09384 14.9982 11.7054 0 0 0
558 16 18 H 1.008 3.92825 13.2151 13.4722 0 0 0
447 13 15 C 12.011 0.974402 10.5029 10.5867 0 0 0
552 16 12 C 12.011 3.29464 14.9838 12.4459 0 0 0
542 16 2 C 12.011 3.8606 14.2807 13.6948 0 0 0
500 14 32 H 1.008 6.45964 12.4968 12.5599 0 0 0
504 14 36 H 1.008 6.69669 12.2473 9.50112 0 0 0
503 14 35 H 1.008 5.91236 13.5548 10.368 0 0 0
484 14 16 C 12.011 6.70308 12.811 10.4318 0 0 0
483 14 15 C 12.011 6.48369 11.9075 11.643 0 0 0
608 17 32 H 1.008 5.21324 17.3706 8.89161 0 0 0
607 17 31 H 1.008 6.18024 17.1199 11.8572 0 0 0
589 17 13 C 12.011 6.78727 16.8999 10.9771 0 0 0
609 17 33 H 1.008 4.23746 16.8285 10.2481 0 0 0
132 4 24 H 1.008 4.33985 11.2655 9.39471 0 0 0
467 13 35 H 1.008 0.299946 11.3918 8.71434 0 0 0
466 13 34 H 1.008 1.83441 12.0361 9.30082 0 0 0
448 13 16 C 12.011 1.23166 11.1313 9.21511 0 0 0
114 4 6 O 15.999 3.83028 10.493 6.95225 0 0 0
571 16 31 H 1.008 2.42434 13.1996 11.5424 0 0 0
570 16 30 H 1.008 1.26778 14.179 12.4117 0 0 0
553 16 13 C 12.011 2.13861 14.2308 11.7595 0 0 0
220 7 4 O 15.999 2.75762 14.6658 5.65144 0 0 0
236 7 20 H 1.008 3.61763 14.6683 5.24934 0 0 0
135 4 27 H 1.008 3.75949 12.1467 4.86249 0 0 0
118 4 10 O 15.999 1.90505 11.58 5.41813 0 0 0
136 4 28 H 1.008 2.10123 12.147 6.15726 0 0 0
222 7 6 O 15.999 2.3512 17.5781 5.39547 0 0 0
235 7 19 H 1.008 0.873917 15.3604 5.29597 0 0 0
239 7 23 H 1.008 4.1883 16.9243 6.1221 0 0 0
572 16 32 H 1.008 -0.17358 15.2197 10.7394 0 0 0
576 16 36 H 1.008 1.14161 14.7675 7.99329 0 0 0
575 16 35 H 1.008 -0.55605 15.1765 8.24518 0 0 0
574 16 34 H 1.008 0.707777 16.3362 8.65548 0 0 0
556 16 16 C 12.011 0.445754 15.2777 8.6605 0 0 0
555 16 15 C 12.011 0.524582 14.7048 10.0768 0 0 0
130 4 22 H 1.008 5.80563 10.9481 7.36687 0 0 0
468 13 36 H 1.008 1.77449 10.443 8.56647 0 0 0
573 16 33 H 1.008 0.258974 13.6478 10.0743 0 0 0
238 7 22 H 1.008 4.26225 18.2565 4.97964 0 0 0
241 7 25 H 1.008 4.6271 19.1093 7.28919 0 0 0
224 7 8 C 12.011 3.62547 18.843 6.9534 0 0 0
240 7 24 H 1.008 3.12041 19.7589 6.6475 0 0 0
242 7 26 H 1.008 3.08256 18.4272 7.80278 0 0 0
324 9 36 H 1.008 10.4541 15.4442 -1.05726 0 0 0
275 8 23 H 1.008 6.98005 16.0698 6.85377 0 0 0
258 8 6 O 15.999 7.22186 17.3681 5.25406 0 0 0
154 5 10 O 15.999 7.05551 11.5004 4.6239 0 0 0
172 5 28 H 1.008 6.99269 11.775 5.52985 0 0 0
263 8 11 O 15.999 7.22108 16.8496 1.64569 0 0 0
261 8 9 C 12.011 7.2136 17.5166 2.87292 0 0 0
257 8 5 C 12.011 7.32545 16.5565 4.0792 0 0 0
269 8 17 H 1.008 7.33375 13.09 2.61462 0 0 0
253 8 1 O 15.999 7.533 14.0183 2.54147 0 0 0
272 8 20 H 1.008 7.1426 14.1398 4.99864 0 0 0
321 9 33 H 1.008 9.80396 14.3087 1.09105 0 0 0
213 6 33 H 1.008 10.3597 10.4231 0.760554 0 0 0
273 8 21 H 1.008 8.30993 16.086 4.02021 0 0 0
259 8 7 C 12.011 7.70191 16.7827 6.45489 0 0 0
274 8 22 H 1.008 8.63613 16.2479 6.28359 0 0 0
298 9 10 O 15.999 12.5425 17.1948 4.27618 0 0 0
316 9 28 H 1.008 12.5423 17.7745 5.02531 0 0 0
297 9 9 C 12.011 13.8513 16.7953 4.03107 0 0 0
190 6 10 O 15.999 12.5397 11.3232 5.63122 0 0 0
208 6 28 H 1.008 12.6825 11.8215 6.42851 0 0 0
291 9 3 C 12.011 13.7902 14.6105 5.28132 0 0 0
307 9 19 H 1.008 12.7207 14.7352 5.45542 0 0 0
189 6 9 C 12.011 13.7068 10.6084 5.38891 0 0 0
153 5 9 C 12.011 8.3188 10.9702 4.40543 0 0 0
171 5 27 H 1.008 9.05178 11.7536 4.61669 0 0 0
210 6 30 H 1.008 11.1698 10.4043 3.65365 0 0 0
302 9 14 O 15.999 11.5999 15.3121 1.33621 0 0 0
303 9 15 C 12.011 10.2042 15.3234 1.09692 0 0 0
304 9 16 C 12.011 9.95969 15.9915 -0.255153 0 0 0
322 9 34 H 1.008 10.3443 17.0114 -0.256061 0 0 0
323 9 35 H 1.008 8.89398 16.0376 -0.47963 0 0 0
320 9 32 H 1.008 9.68869 15.8734 1.88518 0 0 0
301 9 13 C 12.011 11.9419 14.6958 2.56899 0 0 0
319 9 31 H 1.008 11.6212 13.6544 2.55504 0 0 0
194 6 14 O 15.999 12.1005 10.7573 1.83695 0 0 0
300 9 12 C 12.011 13.4704 14.7605 2.75448 0 0 0
306 9 18 H 1.008 13.4407 12.9531 3.91888 0 0 0
317 9 29 H 1.008 13.8711 14.3469 1.82966 0 0 0
318 9 30 H 1.008 11.4141 15.1675 3.39656 0 0 0
195 6 15 C 12.011 10.9798 11.2463 1.11872 0 0 0
196 6 16 C 12.011 11.4906 12.0554 -0.0739934 0 0 0
214 6 34 H 1.008 12.1179 12.8857 0.249137 0 0 0
215 6 35 H 1.008 10.6617 12.4728 -0.645503 0 0 0
216 6 36 H 1.008 12.0833 11.4328 -0.743738 0 0 0
212 6 32 H 1.008 10.3537 11.8668 1.76154 0 0 0
155 5 11 O 15.999 8.51652 10.6024 3.0739 0 0 0
191 6 11 O 15.999 13.8712 10.2673 4.04407 0 0 0
292 9 4 O 15.999 14.3284 13.7817 6.30812 0 0 0
293 9 5 C 12.011 14.4376 16.013 5.23085 0 0 0
294 9 6 O 15.999 14.1847 16.8195 6.3857 0 0 0
308 9 20 H 1.008 15.2673 13.7402 6.18434 0 0 0
309 9 21 H 1.008 15.513 15.9188 5.06325 0 0 0
207 6 27 H 1.008 14.559 11.2506 5.62298 0 0 0
299 9 11 O 15.999 13.9774 16.1004 2.82374 0 0 0
315 9 27 H 1.008 14.4443 17.7042 3.90468 0 0 0
289 9 1 O 15.999 15.3724 13.6166 3.73926 0 0 0
290 9 2 C 12.011 13.9874 13.8973 3.92722 0 0 0
305 9 17 H 1.008 15.4609 12.9367 3.08504 0 0 0
276 8 24 H 1.008 8.67075 18.6149 7.10847 0 0 0
279 8 27 H 1.008 8.11127 18.1406 2.86129 0 0 0
594 17 18 H 1.008 7.22651 14.7475 12.4829 0 0 0
482 14 14 O 15.999 7.54832 10.9755 11.6932 0 0 0
606 17 30 H 1.008 6.94202 17.8442 10.4532 0 0 0
537 15 33 H 1.008 10.6601 10.8044 11.3789 0 0 0
534 15 30 H 1.008 11.9315 10.7797 13.86 0 0 0
277 8 25 H 1.008 8.29222 17.4982 8.41722 0 0 0
647 18 35 H 1.008 10.4521 15.3846 7.4747 0 0 0
646 18 34 H 1.008 11.9948 16.2293 7.55935 0 0 0
628 18 16 C 12.011 11.4072 15.4222 7.9942 0 0 0
627 18 15 C 12.011 11.2143 15.6381 9.49272 0 0 0
585 17 9 C 12.011 9.16642 18.0576 12.696 0 0 0
626 18 14 O 15.999 12.4814 15.5817 10.1198 0 0 0
630 18 18 H 1.008 13.288 13.8443 13.5268 0 0 0
624 18 12 C 12.011 13.8047 15.4217 12.124 0 0 0
614 18 2 C 12.011 13.9152 14.7412 13.5099 0 0 0
597 17 21 H 1.008 10.269 16.6477 13.847 0 0 0
518 15 14 O 15.999 12.6448 11.027 11.9261 0 0 0
314 9 26 H 1.008 13.6441 17.7373 8.82267 0 0 0
643 18 31 H 1.008 11.9113 14.4542 11.731 0 0 0
625 18 13 C 12.011 12.3858 15.4121 11.5263 0 0 0
502 14 34 H 1.008 7.65705 13.3323 10.49 0 0 0
168 5 24 H 1.008 8.88255 11.296 9.08807 0 0 0
479 14 11 O 15.999 9.44782 10.7357 13.7214 0 0 0
605 17 29 H 1.008 8.46918 15.7463 10.4867 0 0 0
260 8 8 C 12.011 7.93142 17.901 7.47047 0 0 0
593 17 17 H 1.008 8.98329 13.5988 12.7786 0 0 0
588 17 12 C 12.011 8.16006 16.312 11.3633 0 0 0
578 17 2 C 12.011 8.14015 15.3369 12.5626 0 0 0
577 17 1 O 15.999 9.25424 14.4534 12.4578 0 0 0
536 15 32 H 1.008 11.0729 12.3497 12.0846 0 0 0
540 15 36 H 1.008 11.9862 11.2938 9.33683 0 0 0
539 15 35 H 1.008 10.7994 12.5653 9.60298 0 0 0
538 15 34 H 1.008 12.4883 12.8447 10.0068 0 0 0
520 15 16 C 12.011 11.6936 12.0988 10.0121 0 0 0
519 15 15 C 12.011 11.4364 11.5648 11.4216 0 0 0
642 18 30 H 1.008 11.7392 16.1666 11.9692 0 0 0
645 18 33 H 1.008 10.55 14.8693 9.8892 0 0 0
587 17 11 O 15.999 9.15876 17.3243 11.512 0 0 0
648 18 36 H 1.008 11.9354 14.488 7.80287 0 0 0
644 18 32 H 1.008 10.7523 16.607 9.68362 0 0 0
205 6 25 H 1.008 15.766 10.3599 10.2219 0 0 0
295 9 7 C 12.011 14.902 16.4919 7.56688 0 0 0
204 6 24 H 1.008 14.3489 11.3046 9.79872 0 0 0
313 9 25 H 1.008 15.2308 17.4273 9.49936 0 0 0
310 9 22 H 1.008 15.9644 16.3595 7.35762 0 0 0
296 9 8 C 12.011 14.699 17.6285 8.56906 0 0 0
641 18 29 H 1.008 14.3895 14.8261 11.4237 0 0 0
629 18 17 H 1.008 15.4173 13.5302 13.2622 0 0 0
623 18 11 O 15.999 14.4054 16.7259 12.117 0 0 0
311 9 23 H 1.008 14.5284 15.5678 8.00921 0 0 0
621 18 9 C 12.011 14.0613 17.6242 13.135 0 0 0
613 18 1 O 15.999 15.2697 14.3478 13.72 0 0 0
202 6 22 H 1.008 15.5374 10.6834 7.71787 0 0 0
188 6 8 C 12.011 14.8048 10.3202 9.70998 0 0 0
278 8 26 H 1.008 7.00906 18.4446 7.6695 0 0 0
586 17 10 O 15.999 8.06951 18.906 12.785 0 0 0
604 17 28 H 1.008 8.12295 19.3815 13.6027 0 0 0
603 17 27 H 1.008 10.0623 18.6818 12.6507 0 0 0
640 18 28 H 1.008 12.6479 18.8112 13.6377 0 0 0
622 18 10 O 15.999 12.7841 18.1491 12.9733 0 0 0
312 9 24 H 1.008 15.0536 18.5783 8.17076 0 0 0
639 18 27 H 1.008 14.7605 18.4575 13.0349 0 0 0
347 10 23 H 1.008 2.45087 0.925691 16.5116 0 0 0
380 11 20 H 1.008 7.55635 1.2043 15.8371 0 0 0
331 10 7 C 12.011 2.6395 1.89854 16.9636 0 0 0
649 19 1 O 15.999 5.91418 0.633718 21.5273 0 0 0
650 19 2 C 12.011 4.68013 1.26499 21.2091 0 0 0
665 19 17 H 1.008 5.86439 -0.282203 21.2899 0 0 0
666 19 18 H 1.008 4.39903 0.966527 20.1961 0 0 0
344 10 20 H 1.008 3.56131 0.478386 14.4622 0 0 0
346 10 22 H 1.008 3.67012 1.90713 17.3209 0 0 0
349 10 25 H 1.008 1.7973 1.35281 18.8966 0 0 0
328 10 4 O 15.999 2.73446 0.677899 14.0489 0 0 0
364 11 4 O 15.999 7.77442 1.2024 14.9145 0 0 0
787 22 31 H 1.008 0.783409 7.31039 21.1565 0 0 0
789 22 33 H 1.008 -0.562803 8.54621 19.6914 0 0 0
350 10 26 H 1.008 0.629817 2.01952 17.759 0 0 0
770 22 14 O 15.999 1.0384 9.31657 20.761 0 0 0
771 22 15 C 12.011 -0.205373 9.49124 20.1046 0 0 0
384 11 24 H 1.008 7.07745 4.25202 19.0604 0 0 0
370 11 10 O 15.999 7.08909 5.43629 14.961 0 0 0
388 11 28 H 1.008 7.0405 5.80069 15.8366 0 0 0
486 14 18 H 1.008 8.08001 7.66452 13.9714 0 0 0
680 19 32 H 1.008 2.88327 6.01137 19.7914 0 0 0
333 10 9 C 12.011 3.27414 4.43553 14.3927 0 0 0
660 19 12 C 12.011 4.94041 2.79022 21.2403 0 0 0
677 19 29 H 1.008 5.94503 2.93195 20.8453 0 0 0
678 19 30 H 1.008 3.02135 3.63633 20.618 0 0 0
679 19 31 H 1.008 4.09631 3.20296 19.2965 0 0 0
661 19 13 C 12.011 4.06326 3.63099 20.2982 0 0 0
351 10 27 H 1.008 3.90542 4.97797 15.0997 0 0 0
379 11 19 H 1.008 6.66648 2.84907 14.3778 0 0 0
452 13 20 H 1.008 4.50206 7.26496 16.2862 0 0 0
436 13 4 O 15.999 3.57441 7.25718 16.0957 0 0 0
435 13 3 C 12.011 3.29452 8.35236 15.2293 0 0 0
345 10 21 H 1.008 4.27141 2.68361 15.1078 0 0 0
785 22 29 H 1.008 3.09285 8.04825 21.4277 0 0 0
699 20 15 C 12.011 7.61104 6.5821 21.3198 0 0 0
348 10 24 H 1.008 1.76645 3.09 18.5618 0 0 0
451 13 19 H 1.008 2.21401 8.50755 15.1937 0 0 0
330 10 6 O 15.999 2.42306 2.95656 16.0457 0 0 0
352 10 28 H 1.008 1.84151 5.28428 15.3132 0 0 0
684 19 36 H 1.008 5.60924 6.95192 18.7288 0 0 0
683 19 35 H 1.008 4.10585 7.87357 18.7314 0 0 0
682 19 34 H 1.008 4.931 7.5136 20.2489 0 0 0
664 19 16 C 12.011 4.67625 7.11392 19.2689 0 0 0
663 19 15 C 12.011 3.87772 5.81532 19.3879 0 0 0
662 19 14 O 15.999 4.59214 4.94898 20.2527 0 0 0
334 10 10 O 15.999 2.0126 5.01252 14.4193 0 0 0
329 10 5 C 12.011 3.24271 2.96722 14.8751 0 0 0
453 13 21 H 1.008 5.02818 9.47491 15.8155 0 0 0
487 14 19 H 1.008 7.14008 9.32326 15.5014 0 0 0
717 20 33 H 1.008 6.99047 5.90305 20.7354 0 0 0
332 10 8 C 12.011 1.65662 2.10181 18.117 0 0 0
681 19 33 H 1.008 3.74752 5.3734 18.3975 0 0 0
472 14 4 O 15.999 8.21258 7.97149 16.6241 0 0 0
471 14 3 C 12.011 8.17315 9.02474 15.6585 0 0 0
368 11 8 C 12.011 8.00879 3.68578 19.044 0 0 0
366 11 6 O 15.999 7.85574 3.4583 16.6759 0 0 0
363 11 3 C 12.011 7.71444 2.54311 14.4418 0 0 0
719 20 35 H 1.008 7.88531 7.81519 19.5757 0 0 0
386 11 26 H 1.008 7.77005 2.63513 19.2088 0 0 0
674 19 26 H 1.008 0.832211 0.0993086 25.8896 0 0 0
654 19 6 O 15.999 2.79915 1.19852 24.5185 0 0 0
672 19 24 H 1.008 1.91879 0.938312 26.9943 0 0 0
653 19 5 C 12.011 3.86001 1.4329 23.5939 0 0 0
669 19 21 H 1.008 4.81806 1.07687 23.9836 0 0 0
655 19 7 C 12.011 2.9185 0.0204518 25.2988 0 0 0
670 19 22 H 1.008 3.89606 -0.0305644 25.7828 0 0 0
671 19 23 H 1.008 2.8024 -0.870641 24.6818 0 0 0
656 19 8 C 12.011 1.81623 0.0598454 26.3571 0 0 0
673 19 25 H 1.008 1.85022 -0.824224 26.9939 0 0 0
704 20 20 H 1.008 6.82952 1.19789 26.5263 0 0 0
688 20 4 O 15.999 7.05509 1.19681 25.605 0 0 0
651 19 3 C 12.011 3.58216 0.829499 22.2012 0 0 0
652 19 4 O 15.999 3.51231 -0.592209 22.2081 0 0 0
668 19 20 H 1.008 4.18589 -0.929873 22.7807 0 0 0
667 19 19 H 1.008 2.62113 1.21447 21.8519 0 0 0
775 22 19 H 1.008 1.05673 7.07827 24.5372 0 0 0
782 22 26 H 1.008 1.01839 8.38417 28.8592 0 0 0
786 22 30 H 1.008 0.270776 8.37743 22.449 0 0 0
769 22 13 C 12.011 1.03198 8.23339 21.6824 0 0 0
690 20 6 O 15.999 8.059 2.98704 27.5954 0 0 0
805 23 13 C 12.011 7.67937 9.12685 24.035 0 0 0
697 20 13 C 12.011 7.75264 4.87023 22.9371 0 0 0
694 20 10 O 15.999 8.05087 5.27618 26.0924 0 0 0
686 20 2 C 12.011 8.17238 2.47673 23.8674 0 0 0
712 20 28 H 1.008 8.12561 5.56662 26.9915 0 0 0
687 20 3 C 12.011 7.55697 2.48817 25.279 0 0 0
702 20 18 H 1.008 7.4165 2.18239 23.1353 0 0 0
767 22 11 O 15.999 2.84362 9.29002 22.9907 0 0 0
764 22 8 C 12.011 2.10154 8.50839 28.8545 0 0 0
759 22 3 C 12.011 2.14435 6.98562 24.5692 0 0 0
760 22 4 O 15.999 2.47719 5.80348 25.2908 0 0 0
761 22 5 C 12.011 2.71442 8.27138 25.2071 0 0 0
763 22 7 C 12.011 2.71122 7.89981 27.5919 0 0 0
776 22 20 H 1.008 3.42011 5.76754 25.3765 0 0 0
777 22 21 H 1.008 3.80255 8.20174 25.2772 0 0 0
675 19 27 H 1.008 4.26452 3.36569 24.43 0 0 0
676 19 28 H 1.008 2.20144 3.51876 23.899 0 0 0
779 22 23 H 1.008 2.49272 6.83242 27.5625 0 0 0
778 22 22 H 1.008 3.79581 8.01896 27.6058 0 0 0
762 22 6 O 15.999 2.13974 8.57045 26.4804 0 0 0
822 23 30 H 1.008 7.28401 9.55989 24.9526 0 0 0
703 20 19 H 1.008 6.72636 3.19755 25.293 0 0 0
765 22 9 C 12.011 2.39502 9.48035 24.299 0 0 0
773 22 17 H 1.008 4.28432 5.8481 22.6116 0 0 0
659 19 11 O 15.999 4.97829 3.32752 22.5695 0 0 0
768 22 12 C 12.011 2.43818 8.10856 22.2931 0 0 0
658 19 10 O 15.999 2.74677 3.52147 23.1193 0 0 0
716 20 32 H 1.008 6.93225 7.23605 21.8663 0 0 0
657 19 9 C 12.011 3.96911 2.96128 23.4579 0 0 0
714 20 30 H 1.008 7.11215 5.30836 23.7024 0 0 0
715 20 31 H 1.008 7.10977 4.33312 22.2479 0 0 0
780 22 24 H 1.008 2.31609 9.57532 28.9176 0 0 0
758 22 2 C 12.011 2.68025 6.83504 23.1316 0 0 0
825 23 33 H 1.008 5.4473 8.8419 22.9343 0 0 0
823 23 31 H 1.008 7.28324 8.11118 23.9796 0 0 0
757 22 1 O 15.999 4.08645 6.5955 23.1663 0 0 0
774 22 18 H 1.008 2.18347 5.99196 22.6455 0 0 0
708 20 24 H 1.008 7.79788 3.91342 30.0643 0 0 0
781 22 25 H 1.008 2.49716 8.03094 29.7511 0 0 0
710 20 26 H 1.008 7.57093 2.16614 30.0626 0 0 0
416 12 20 H 1.008 13.3968 1.01361 15.4598 0 0 0
419 12 23 H 1.008 11.9529 1.45565 17.5539 0 0 0
418 12 22 H 1.008 13.6358 1.86331 17.898 0 0 0
421 12 25 H 1.008 12.3244 1.62464 20.0185 0 0 0
400 12 4 O 15.999 12.552 1.23435 15.0983 0 0 0
403 12 7 C 12.011 12.61 2.23151 17.9498 0 0 0
404 12 8 C 12.011 12.2502 2.52252 19.4054 0 0 0
469 14 1 O 15.999 10.0502 8.00435 14.5225 0 0 0
383 11 23 H 1.008 9.65299 3.28401 17.7037 0 0 0
700 20 16 C 12.011 8.49307 7.37297 20.3609 0 0 0
417 12 21 H 1.008 14.1911 3.2216 16.0897 0 0 0
399 12 3 C 12.011 12.5124 2.63682 14.8432 0 0 0
385 11 25 H 1.008 8.62479 4.02366 19.8783 0 0 0
720 20 36 H 1.008 9.23177 6.72957 19.8834 0 0 0
718 20 34 H 1.008 9.01983 8.17212 20.8773 0 0 0
488 14 20 H 1.008 9.12349 7.76031 16.7825 0 0 0
415 12 19 H 1.008 11.4777 2.94903 14.7331 0 0 0