LAMMPS data file for cgenff36 by xyan11@uic.edu

    31 atoms
    17 atom types
    30 bonds
    7 bond types
    53 angles
    13 angle types
    41 dihedrals
    11 dihedral types
    16 impropers
    4 improper types

    -3.000000 14.746637 xlo xhi
    -1.898330 1.898280 ylo yhi
    -2.425962 1.626167 zlo zhi
    

Masses

  1 15.9994
  2  1.0080
  3 12.0110
  4  1.0080
  5  1.0080
  6 12.0110
  7  1.0080
  8  1.0080
  9 15.9994
 10 12.0110
 11  1.0080
 12  1.0080
 13 12.0110
 14  1.0080
 15  1.0080
 16 15.9994
 17  1.0080


Atoms 

  1  1   1 -0.65   -1.17455      0.0 -0.799795  # OG311
  2  1   2  0.42       -2.0      0.0      -0.1   # HGP1
  3  1   3  0.05        0.0      0.0      -0.0  # CG321
  4  1   4  0.09    0.03748 -0.89833  0.623659   # HGA2
  5  1   5  0.09   0.036203  0.89707  0.625535   # HGA2
  6  1   6 -0.01    1.17455      0.0 -0.799795  # CG321
  7  1   7  0.09    1.13707 -0.89833 -1.423454   # HGA2
  8  1   8  0.09   1.138347  0.89707  -1.42533   # HGA2
  9  1   9 -0.34     2.3491      0.0       0.0  # OG301
 10  1  10 -0.01   3.524029      0.0 -0.799795  # CG321
 11  1  11  0.09    3.56161  0.89828  -1.42353   # HGA2
 12  1  12  0.09   3.559637 -0.89713 -1.425962   # HGA2
 13  1   6 -0.01   4.698579      0.0       0.0  # CG321
 14  1   7  0.09   4.661099 -0.89833  0.623659   # HGA2
 15  1   8  0.09   4.662376  0.89707  0.625535   # HGA2
 16  1   9 -0.34   5.873129      0.0 -0.799795  # OG301
 17  1  10 -0.01   7.048058      0.0       0.0  # CG321
 18  1  11  0.09   7.085639  0.89828  0.623735   # HGA2
 19  1  12  0.09   7.083666 -0.89713  0.626167   # HGA2
 20  1   6 -0.01   8.222608      0.0 -0.799795  # CG321
 21  1   7  0.09   8.185128 -0.89833 -1.423454   # HGA2
 22  1   8  0.09   8.186405  0.89707  -1.42533   # HGA2
 23  1   9 -0.34   9.397158      0.0       0.0  # OG301
 24  1  10 -0.01  10.572087      0.0 -0.799795  # CG321
 25  1  11  0.09  10.609668  0.89828  -1.42353   # HGA2
 26  1  12  0.09  10.607695 -0.89713 -1.425962   # HGA2
 27  1  13  0.05  11.746637      0.0       0.0  # CG321
 28  1  14  0.09  11.709157 -0.89833  0.623659   # HGA2
 29  1  15  0.09  11.710434  0.89707  0.625535   # HGA2
 30  1  16 -0.65  12.921187      0.0 -0.799795  # OG311
 31  1  17  0.42  13.746637      0.0      -0.1   # HGP1


Bonds 

  1  1   4   3   # HGA2-CG321
  2  2   5   3   # HGA2-CG321
  3  3   1   3  # OG311-CG321
  4  4   2   1   # HGP1-OG311
  5  5   6   3  # CG321-CG321
  6  1   6   7   # CG321-HGA2
  7  2   6   8   # CG321-HGA2
  8  3   6   9  # CG321-OG301
  9  4   9  10  # OG301-CG321
 10  5  10  11   # CG321-HGA2
 11  6  10  12   # CG321-HGA2
 12  7  10  13  # CG321-CG321
 13  1  13  14   # CG321-HGA2
 14  2  13  15   # CG321-HGA2
 15  3  13  16  # CG321-OG301
 16  4  16  17  # OG301-CG321
 17  5  17  18   # CG321-HGA2
 18  6  17  19   # CG321-HGA2
 19  7  17  20  # CG321-CG321
 20  1  20  21   # CG321-HGA2
 21  2  20  22   # CG321-HGA2
 22  3  20  23  # CG321-OG301
 23  4  23  24  # OG301-CG321
 24  5  24  25   # CG321-HGA2
 25  6  24  26   # CG321-HGA2
 26  7  24  27  # CG321-CG321
 27  1  28  27   # HGA2-CG321
 28  2  29  27   # HGA2-CG321
 29  3  30  27  # OG311-CG321
 30  4  31  30   # HGP1-OG311


Angles 

  1   1   4   3   5    # HGA2-CG321-HGA2
  2   2   4   3   1   # HGA2-CG321-OG311
  3   3   5   3   1   # HGA2-CG321-OG311
  4   4   3   1   2   # CG321-OG311-HGP1
  5   5   6   3   4   # CG321-CG321-HGA2
  6   6   6   3   5   # CG321-CG321-HGA2
  7   7   6   3   1  # CG321-CG321-OG311
  8   8   7   6   3   # HGA2-CG321-CG321
  9   9   8   6   3   # HGA2-CG321-CG321
 10  10   9   6   3  # OG301-CG321-CG321
 11   1   6   9  10  # CG321-OG301-CG321
 12   2   9  10  13  # OG301-CG321-CG321
 13   3   9   6   7   # OG301-CG321-HGA2
 14   4   9   6   8   # OG301-CG321-HGA2
 15   5   9  10  11   # OG301-CG321-HGA2
 16   6   9  10  12   # OG301-CG321-HGA2
 17   7  13  10  11   # CG321-CG321-HGA2
 18   8   7   6   8    # HGA2-CG321-HGA2
 19   9  11  10  12    # HGA2-CG321-HGA2
 20  10  13  10  12   # CG321-CG321-HGA2
 21  11  10  13  14   # CG321-CG321-HGA2
 22  12  10  13  15   # CG321-CG321-HGA2
 23  13  10  13  16  # CG321-CG321-OG301
 24   1  13  16  17  # CG321-OG301-CG321
 25   2  16  17  20  # OG301-CG321-CG321
 26   3  16  13  14   # OG301-CG321-HGA2
 27   4  16  13  15   # OG301-CG321-HGA2
 28   5  16  17  18   # OG301-CG321-HGA2
 29   6  16  17  19   # OG301-CG321-HGA2
 30   7  20  17  18   # CG321-CG321-HGA2
 31   8  14  13  15    # HGA2-CG321-HGA2
 32   9  18  17  19    # HGA2-CG321-HGA2
 33  10  20  17  19   # CG321-CG321-HGA2
 34  11  17  20  21   # CG321-CG321-HGA2
 35  12  17  20  22   # CG321-CG321-HGA2
 36  13  17  20  23  # CG321-CG321-OG301
 37   1  20  23  24  # CG321-OG301-CG321
 38   2  23  24  27  # OG301-CG321-CG321
 39   3  23  20  21   # OG301-CG321-HGA2
 40   4  23  20  22   # OG301-CG321-HGA2
 41   5  23  24  25   # OG301-CG321-HGA2
 42   6  23  24  26   # OG301-CG321-HGA2
 43   7  27  24  25   # CG321-CG321-HGA2
 44   8  21  20  22    # HGA2-CG321-HGA2
 45   9  25  24  26    # HGA2-CG321-HGA2
 46  10  27  24  26   # CG321-CG321-HGA2
 47  11  24  27  28   # CG321-CG321-HGA2
 48  12  24  27  29   # CG321-CG321-HGA2
 49  13  24  27  30  # CG321-CG321-OG311
 50   1  28  27  29    # HGA2-CG321-HGA2
 51   2  28  27  30   # HGA2-CG321-OG311
 52   3  29  27  30   # HGA2-CG321-OG311
 53   4  27  30  31   # CG321-OG311-HGP1


Dihedrals

  1   1   4   3   1   2    # HGA2-CG321-OG311-HGP1
  2   2   5   3   1   2    # HGA2-CG321-OG311-HGP1
  3   3   4   3   6   9   # HGA2-CG321-CG321-OG301
  4   4   5   3   6   9   # HGA2-CG321-CG321-OG301
  5   5   7   6   3   1   # HGA2-CG321-CG321-OG311
  6   6   8   6   3   1   # HGA2-CG321-CG321-OG311
  7   1  13  10   9   6  # CG321-CG321-OG301-CG321
  8   2   7   6   9  10   # HGA2-CG321-OG301-CG321
  9   3  11  10   9   6   # HGA2-CG321-OG301-CG321
 10   4  12  10   9   6   # HGA2-CG321-OG301-CG321
 11   5   8   6   9  10   # HGA2-CG321-OG301-CG321
 12   6   9  10  13  16  # OG301-CG321-CG321-OG301
 13   7  11  10  13  16   # HGA2-CG321-CG321-OG301
 14   8  12  10  13  16   # HGA2-CG321-CG321-OG301
 15   9  14  13  10   9   # HGA2-CG321-CG321-OG301
 16  10  15  13  10   9   # HGA2-CG321-CG321-OG301
 17  11  10  13  16  17  # CG321-CG321-OG301-CG321
 18   1  20  17  16  13  # CG321-CG321-OG301-CG321
 19   2  14  13  16  17   # HGA2-CG321-OG301-CG321
 20   3  18  17  16  13   # HGA2-CG321-OG301-CG321
 21   4  19  17  16  13   # HGA2-CG321-OG301-CG321
 22   5  15  13  16  17   # HGA2-CG321-OG301-CG321
 23   6  16  17  20  23  # OG301-CG321-CG321-OG301
 24   7  18  17  20  23   # HGA2-CG321-CG321-OG301
 25   8  19  17  20  23   # HGA2-CG321-CG321-OG301
 26   9  21  20  17  16   # HGA2-CG321-CG321-OG301
 27  10  22  20  17  16   # HGA2-CG321-CG321-OG301
 28  11  17  20  23  24  # CG321-CG321-OG301-CG321
 29   1  27  24  23  20  # CG321-CG321-OG301-CG321
 30   2  21  20  23  24   # HGA2-CG321-OG301-CG321
 31   3  25  24  23  20   # HGA2-CG321-OG301-CG321
 32   4  26  24  23  20   # HGA2-CG321-OG301-CG321
 33   5  22  20  23  24   # HGA2-CG321-OG301-CG321
 34   6  23  24  27  30  # OG301-CG321-CG321-OG311
 35   7  25  24  27  30   # HGA2-CG321-CG321-OG311
 36   8  26  24  27  30   # HGA2-CG321-CG321-OG311
 37   9  28  27  24  23   # HGA2-CG321-CG321-OG301
 38  10  29  27  24  23   # HGA2-CG321-CG321-OG301
 39  11  24  27  30  31   # CG321-CG321-OG311-HGP1
 40   1  28  27  30  31    # HGA2-CG321-OG311-HGP1
 41   2  29  27  30  31    # HGA2-CG321-OG311-HGP1


Impropers

  1  1   3   4   1   6  # CG321-HGA2-OG311-CG321
  2  2   3   5   1   6  # CG321-HGA2-OG311-CG321
  3  1  10   9  13  11  # CG321-OG301-CG321-HGA2
  4  2  10   9  13  12  # CG321-OG301-CG321-HGA2
  5  3   6   7   9   3  # CG321-HGA2-OG301-CG321
  6  4   6   8   9   3  # CG321-HGA2-OG301-CG321
  7  1  17  16  20  18  # CG321-OG301-CG321-HGA2
  8  2  17  16  20  19  # CG321-OG301-CG321-HGA2
  9  3  13  14  16  10  # CG321-HGA2-OG301-CG321
 10  4  13  15  16  10  # CG321-HGA2-OG301-CG321
 11  1  24  23  27  25  # CG321-OG301-CG321-HGA2
 12  2  24  23  27  26  # CG321-OG301-CG321-HGA2
 13  3  20  21  23  17  # CG321-HGA2-OG301-CG321
 14  4  20  22  23  17  # CG321-HGA2-OG301-CG321
 15  1  27  28  30  24  # CG321-HGA2-OG311-CG321
 16  2  27  29  30  24  # CG321-HGA2-OG311-CG321
