LAMMPS data file via write_data, version 28 Mar 2023, timestep = 10424

496 atoms
17 atom types
480 bonds
7 bond types
848 angles
13 angle types
656 dihedrals
11 dihedral types
256 impropers
4 improper types

-10.13796409862499 10.13796409862499 xlo xhi
-8.675423039639842 8.675423039639842 ylo yhi
-9.259295341420815 9.259295341420815 zlo zhi

Masses

1 15.9994
2 1.008
3 12.011
4 1.008
5 1.008
6 12.011
7 1.008
8 1.008
9 15.9994
10 12.011
11 1.008
12 1.008
13 12.011
14 1.008
15 1.008
16 15.9994
17 1.008

Atoms # full

11 1 11 0.09 -3.590137271676382 -6.087625843152821 -5.433054370644644 0 0 0
132 5 8 0.09 -4.38161541473777 -5.377311099709402 -1.3982101437554713 0 0 0
32 2 1 -0.65 -6.794223824700788 -4.2190262904976965 -4.928158109906104 0 0 0
33 2 2 0.42 -6.146395666998787 -3.931438496904649 -5.595677241548806 0 0 0
34 2 3 0.05 -7.868980690016299 -4.852970501042558 -5.619332907801073 0 0 0
36 2 5 0.09 -8.057655779313304 -5.838110786609462 -5.139847556754367 0 0 0
37 2 6 -0.01 -7.614297476235331 -4.666954614801987 -7.098454267323705 0 0 0
38 2 7 0.09 -7.536139389844369 -5.616311062624067 -7.669933772556124 0 0 0
40 2 9 -0.34 -6.291969080679686 -4.158873680563512 -7.195825172171092 0 0 0
156 6 1 -0.65 -3.616250297563128 -2.8581369692329757 -1.8893188542873114 0 0 0
157 6 2 0.42 -2.7175346627876262 -2.945501832381116 -2.2094674327788555 0 0 0
158 6 3 0.05 -4.323112221244014 -2.8329843978383584 -3.0665794229231604 0 0 0
159 6 4 0.09 -4.282702654200043 -1.7813086563153178 -3.4527862598959054 0 0 0
160 6 5 0.09 -5.3167428275520185 -3.2245325406494407 -2.937950289735781 0 0 0
2 1 2 0.42 -4.577305206423622 8.430885991336734 -3.398000074868788 0 -1 0
161 6 6 -0.01 -3.3637196074194273 -3.6798822085633605 -3.922598560473854 0 0 0
163 6 8 0.09 -3.4770397375181803 -3.355217530490261 -4.979415443801403 0 0 0
135 5 11 0.09 -2.3354022709917786 -5.283307403833861 -1.7934377733127658 0 0 0
44 2 6 -0.01 -4.939870346267394 -3.082928487169296 -8.15038290101785 0 0 0
9 1 9 -0.34 -4.033656363850078 -7.848369025741485 -4.348362499594547 0 0 0
1 1 1 -0.65 -5.221148860730515 -8.674720046974738 -2.6679520701286226 0 0 0
162 6 7 0.09 -3.510201751475263 -4.799060150546943 -3.823542798036107 0 0 0
13 1 6 -0.01 -1.9813973737018475 -7.6909627115453105 -4.648861325185018 0 0 0
15 1 8 0.09 -1.6062656773706294 -6.877789606377828 -3.9050944292576864 0 0 0
45 2 7 0.09 -5.088619150184957 -2.4793968823368173 -7.246764588377916 0 0 0
164 6 9 -0.34 -2.062023201079713 -3.353128246913509 -3.4023204284960267 0 0 0
165 6 10 -0.01 -1.302473608086748 -3.525425873742029 -4.032446258309149 0 0 0
166 6 11 0.09 -1.0491047230337696 -2.3762874933157514 -5.02873885694308 0 0 0
167 6 12 0.09 -1.4108216775040212 -4.489783462880756 -4.630899416741282 0 0 0
168 6 6 -0.01 -0.05372308951178617 -3.548293622098356 -3.1681267646010127 0 0 0
169 6 7 0.09 0.32875109178257134 -4.557774752834865 -3.2835589977700703 0 0 0
170 6 8 0.09 -0.38586135190090154 -3.200557529995014 -2.11512361368419 0 0 0
16 1 9 -0.34 -1.0648555028591904 -7.4359891187083225 -5.71253124389759 0 0 0
47 2 9 -0.34 -3.5968895802743397 -3.387287113294538 -8.221794354838941 0 0 0
48 2 10 -0.01 -2.9286599111040914 -2.696710176297011 -7.94026597818556 0 0 0
50 2 12 0.09 -2.7509708425822073 -2.7319864536439056 -6.774927653216318 0 0 0
10 1 10 -0.01 -3.4500713460837513 -7.569089539922442 -5.114572189087384 0 0 0
12 1 12 0.09 -3.616783764820031 -8.161686797338978 -6.090961859243048 0 0 0
4 1 4 0.09 -6.583648070664351 -7.13994208181876 -2.742194310937445 0 0 0
6 1 6 -0.01 -5.348413309718056 -7.282919109891767 -4.533937349442475 0 0 0
8 1 8 0.09 -5.263753419204031 -6.249278441922092 -4.227204024650201 0 0 0
3 1 3 0.05 -6.171285033822784 -7.919045291153619 -3.367084392180306 0 0 0
7 1 7 0.09 -5.851509809425704 -7.621112215225304 -5.4449453283563685 0 0 0
51 2 6 -0.01 -1.5676305154638932 -3.068237197574824 -8.553958258602076 0 0 0
52 2 7 0.09 -1.2104080751500863 -4.003194923968565 -8.044361537758995 0 0 0
130 5 6 -0.01 -4.322674411007074 -6.062307879406555 -0.4924331047170156 0 0 0
133 5 9 -0.34 -2.998792971722997 -6.222011322978904 -0.04124240730162576 0 0 0
136 5 12 0.09 -2.7991577300166846 -7.369280247606011 -1.5106599240787721 0 0 0
131 5 7 0.09 -4.780854257495664 -7.059442022593617 -0.6785103200210028 0 0 0
134 5 10 -0.01 -2.4781850526404794 -6.500378734327493 -0.8379887648895643 0 0 0
54 2 9 -0.34 -0.5995379335778708 -2.1226166160661064 -8.166280378998708 0 0 0
46 2 8 0.09 -5.1960088822750725 -2.5485260047163765 -9.144926594142655 0 0 0
137 5 6 -0.01 -0.9718424057095216 -6.761635290484364 -0.41370197403245257 0 0 0
387 13 8 0.09 -1.542179023298191 -7.661418431853871 -8.163726692914327 0 0 1
193 7 7 0.09 -1.144960421766548 -0.7719624469860626 -0.9428899002596065 0 0 0
198 7 12 0.09 -0.16664181680740597 -0.10160676591905116 -3.1101896872609194 0 0 0
35 2 4 0.09 -8.76962085613133 -4.315456546502309 -5.436427807483238 0 0 0
39 2 8 0.09 -8.207132216027253 -3.800455706675349 -7.464424920353531 0 0 0
53 2 8 0.09 -1.658325852680015 -3.1048649422318597 8.834162594758391 0 0 -1
17 1 10 -0.01 -0.32355422981515325 -7.985373079634948 -5.6443914020588855 0 0 0
140 5 9 -0.34 -0.04409381852594407 -6.807518064700501 -1.5021768542760032 0 0 0
67 3 5 0.09 -6.250696317511066 -0.7012589661392772 -7.210686869814937 0 0 0
194 7 8 0.09 -2.061853889365949 -0.7759966663346471 -2.6815336454229817 0 0 0
41 2 10 -0.01 -5.819279875699773 -4.365039759790272 -8.025721517040115 0 0 0
43 2 12 0.09 -5.210084836742809 -5.3565620284388 -8.081256918762847 0 0 0
280 10 1 -0.65 -0.5613732388470449 -2.9294368547123097 0.42322220971166225 0 0 0
281 10 2 0.42 -0.267090014213645 -1.999376947850683 0.5328729257424918 0 0 0
42 2 11 0.09 -6.775161080933604 -4.329811675838119 -9.234820874034202 0 0 0
373 13 1 -0.65 -5.264559447300372 -8.25948289939501 8.81700636972782 0 0 0
284 10 5 0.09 -2.479865236764974 -2.6068007221278178 0.3266200577207137 0 0 0
18 1 11 0.09 -0.015722062707812512 -8.473960627758673 -4.263467179787917 0 0 0
145 5 7 0.09 1.9722641280591429 -7.786310421550684 -1.758697059962687 0 0 0
141 5 10 -0.01 0.7281210129641185 -6.290334488542403 -1.2139369418064359 0 0 0
142 5 11 0.09 0.608732119799523 -4.809318339344914 -1.2119680174889886 0 0 0
171 6 9 -0.34 0.900897830910818 -2.6417982549685997 -3.745747777310396 0 0 0
20 1 6 -0.01 0.7789641712162751 -7.024929508113923 -6.0617675889601115 0 0 0
21 1 7 0.09 0.6833316909393954 -6.607206307695179 -7.054025378404301 0 0 0
22 1 8 0.09 0.7408062935906603 -6.23227728656793 -5.310901997584635 0 0 0
23 1 9 -0.34 2.0965712574399475 -7.684061587450653 -5.904098843416357 0 0 0
24 1 10 -0.01 2.7376132126409836 -7.187216465655378 -6.465122935171335 0 0 0
26 1 12 0.09 2.622564862079898 -7.388080453122255 -7.602235648282523 0 0 0
144 5 6 -0.01 1.7884869387209044 -6.763531637317689 -2.1586274607485842 0 0 0
146 5 8 0.09 1.4650664794868984 -6.648926090910643 -3.3154799125543803 0 0 0
147 5 9 -0.34 3.0621638929006156 -6.049274772253375 -2.012417584949625 0 0 0
149 5 11 0.09 3.3157029275419667 -5.338192413896923 -3.9726518564810247 0 0 0
55 2 10 -0.01 0.2332129376533647 -2.392459057034154 -8.512236742503449 0 0 0
172 6 10 -0.01 1.7274288529400277 -2.538352377566069 -3.2616169344052954 0 0 0
173 6 11 0.09 1.7541291923730586 -1.5005154482234042 -2.1303001667236936 0 0 0
174 6 12 0.09 2.1834610804108525 -3.4710159424950806 -2.7716433693792517 0 0 0
175 6 6 -0.01 2.819946422075084 -2.3332251458814985 -4.346683588036863 0 0 0
176 6 7 0.09 2.817266590930858 -3.1844140687995823 -5.095061602957005 0 0 0
148 5 10 -0.01 3.6737516463847832 -6.177534611118306 -2.7538864788732385 0 0 0
150 5 12 0.09 3.8013957970800263 -7.231968979446746 -3.0990873811023674 0 0 0
58 2 13 0.05 1.1763788192075033 -2.6563320310469614 -7.352207960073283 0 0 0
59 2 14 0.09 0.7344387068358156 -3.5578574435831927 -6.826330660911248 0 0 0
60 2 15 0.09 1.1023137772816458 -1.7941266054660172 -6.614184343742252 0 0 0
177 6 8 0.09 2.6338443185081797 -1.3697131346980864 -4.839320624675236 0 0 0
25 1 11 0.09 2.7847021563008845 -5.694218591842413 -6.233766423166082 0 0 0
61 2 16 -0.65 2.570558836373264 -2.886843348922759 -7.707352898664684 0 0 0
62 2 17 0.42 3.045389048840473 -2.034188316909744 -7.77324784519896 0 0 0
178 6 9 -0.34 4.112196777974692 -2.3167418468164085 -3.8207998793286135 0 0 0
27 1 13 0.05 4.080608737445596 -7.747865797411902 -5.997102293634176 0 0 0
29 1 15 0.09 4.502179341485318 -7.05294343043337 -5.16044978799177 0 0 0
30 1 16 -0.65 4.954036480080294 -7.761076459077142 -7.123797133380702 0 0 0
151 5 13 0.05 5.0611419020061685 -5.573294084838077 -2.1972104670915886 0 0 0
154 5 16 -0.65 6.169637823145296 -5.816346044170508 -3.060201243725034 0 0 0
155 5 17 0.42 6.472146236153199 -4.962976099010506 -3.377769705135755 0 0 0
179 6 10 -0.01 4.726397498844328 -2.6589666457350756 -4.513426636653476 0 0 0
181 6 12 0.09 4.938766553372766 -3.7580362442582134 -4.603064243002408 0 0 0
182 6 13 0.05 6.020142217596012 -2.071857505934565 -3.984726635993705 0 0 0
185 6 16 -0.65 6.756892335039561 -3.1475429961574166 -3.350405150222617 0 0 0
180 6 11 0.09 4.504103170947079 -2.1161190913793506 -5.92093305215268 0 0 0
184 6 15 0.09 6.556729624353482 -1.6441011704587476 -4.827160917212832 0 0 0
183 6 14 0.09 5.744476592656831 -1.235679586475233 -3.2389092876698227 0 0 0
186 6 17 0.42 7.331005616275261 -2.829156082616536 -2.613106443361331 0 0 0
390 13 11 0.09 0.8702226579481351 -8.087471695054411 -8.869245698332202 0 0 1
31 1 17 0.42 5.863438805924007 -7.903799552399773 -6.833252414025392 0 0 0
153 5 15 0.09 4.8636657945693855 -4.468015983304274 -2.0998800354031175 0 0 0
152 5 14 0.09 5.26798359289403 -6.089148208277473 -1.2251894599423299 0 0 0
397 13 11 0.09 3.994857973689303 -5.326360603755749 -8.593440553258024 0 0 1
394 13 8 0.09 1.8489724055261938 -5.5952725106221814 -8.479838944240997 0 0 1
273 9 11 0.09 5.273129207988248 -2.5566713551684694 -0.9078548518755891 0 0 0
278 9 16 -0.65 7.61688912537589 -0.8577988375426289 -1.24000550266042 0 0 0
279 9 17 0.42 7.997742679899249 -0.011989757101282805 -1.0992023802724535 0 0 0
14 1 7 0.09 -1.8710296628772891 8.607100684119228 -4.451659481366499 0 -1 0
5 1 5 0.09 -6.957236888859338 -8.611606594444444 -3.7812793090786982 0 0 0
63 3 1 -0.65 -5.060824242810372 -0.3000997154817071 -5.623587468301494 0 0 0
19 1 12 0.09 -0.36534416899926825 8.473025426613535 -6.25452703058555 0 -1 0
191 7 5 0.09 -3.098062988506072 0.2399332536847254 -0.007211221923222766 0 0 0
189 7 3 0.05 -3.01264892705405 0.2678813810656866 -1.0935764007789182 0 0 0
96 4 3 0.05 -5.744571597114268 5.927671574494351 -8.060932280361143 0 0 0
97 4 4 0.09 -6.612910803431195 5.616184512760613 -7.417889444430006 0 0 0
222 8 5 0.09 -4.173099080104924 5.2766710846126745 -2.13022797608913 0 0 0
221 8 4 0.09 -3.521032219418534 4.342653491763286 -3.68326674919809 0 0 0
190 7 4 0.09 -3.8203579605993703 -0.3464132116506864 -1.3872477142880895 0 0 0
101 4 8 0.09 -4.791551679202349 6.455609848796984 -6.276335481860075 0 0 0
66 3 4 0.09 -6.842404658562023 0.6163010386851493 -6.110747328021223 0 0 0
65 3 3 0.05 -5.996478679786687 0.16330586206268727 -6.571939232892335 0 0 0
188 7 2 0.42 -2.5648819774461957 1.6181048763306851 -2.3905325370317474 0 0 0
187 7 1 -0.65 -3.0660064568121808 1.5868915615814956 -1.5901381390830815 0 0 0
218 8 1 -0.65 -2.9660296663113206 6.328399198650491 -3.3883209387775537 0 0 0
219 8 2 0.42 -2.1799439360349773 6.54607863314043 -2.8995287196731487 0 0 0
220 8 3 0.05 -3.3135621682929974 5.080095636095104 -2.824703078960062 0 0 0
192 7 6 -0.01 -1.8253014591800163 -0.20044798116885332 -1.7775318848678463 0 0 0
99 4 6 -0.01 -4.61950748468895 6.620912724447628 -7.3811890526263495 0 0 0
64 3 2 0.42 -4.341125508919356 0.3155166446398976 -5.620574484914066 0 0 0
69 3 7 0.09 -4.94756782190621 0.8054932069375695 -8.326221483941024 0 0 0
68 3 6 -0.01 -5.276809182601776 1.2437849089797588 -7.336691132576432 0 0 0
70 3 8 0.09 -6.014764456803993 2.1046225755651644 -7.275696316447105 0 0 0
71 3 9 -0.34 -4.083391080550932 1.4013369151924238 -6.622456642987775 0 0 0
72 3 10 -0.01 -3.2520460982193837 1.8132884567580803 -7.014715942259768 0 0 0
73 3 11 0.09 -3.0418506800409597 3.219465797483398 -6.308808265479835 0 0 0
74 3 12 0.09 -3.200043837453358 1.9391912956554496 -8.076574043168986 0 0 0
75 3 6 -0.01 -2.0800611429644515 0.8577782873276476 -6.529934443677936 0 0 0
76 3 7 0.09 -2.253369993314105 -0.10631030812646713 -7.122410091182591 0 0 0
77 3 8 0.09 -2.347554757214028 0.7750283739022468 -5.401859318471205 0 0 0
195 7 9 -0.34 -1.2036887850520888 0.9832780755886272 -2.2073424019237127 0 0 0
196 7 10 -0.01 -0.4078203540534666 0.9197756436538853 -2.758576974026729 0 0 0
197 7 11 0.09 -0.41968775036982997 1.7469088774585586 -4.086934691779775 0 0 0
102 4 9 -0.34 -3.55610602651708 5.799832097158729 -7.806503772989638 0 0 0
103 4 10 -0.01 -2.6792899777304546 6.090591646253134 -7.4636563416017925 0 0 0
104 4 11 0.09 -2.4768988071305706 5.822060878051358 -5.99851029528215 0 0 0
106 4 6 -0.01 -1.5977972017191693 5.316404851821076 -8.170601405373667 0 0 0
108 4 8 0.09 -1.6570620243914078 4.2805436287029615 -7.8384178902769746 0 0 0
223 8 6 -0.01 -2.0783738095247593 4.668823899968821 -2.0354917500133842 0 0 0
224 8 7 0.09 -2.3914046870403975 4.701927797405554 -0.9581687828786603 0 0 0
225 8 8 0.09 -1.833899215318251 3.6406674691478322 -2.4070160304408237 0 0 0
226 8 9 -0.34 -1.173692238037539 5.700056418435956 -2.353073821389157 0 0 0
227 8 10 -0.01 -0.25403898709921613 5.406737168437436 -2.327974098596748 0 0 0
229 8 12 0.09 0.16539773272193514 4.749863665035562 -1.5013571727897572 0 0 0
78 3 9 -0.34 -0.7976323272864843 1.3952870930557104 -6.6252851177414005 0 0 0
105 4 12 0.09 -2.489779320103115 7.260019758473273 -7.6300799495801686 0 0 0
100 4 7 0.09 -4.479366294137436 7.653007178179493 -7.695512128903673 0 0 0
201 7 8 0.09 0.44804241353654817 2.428248574043682 -1.4399217839062315 0 0 0
94 4 1 -0.65 -5.270691128654774 4.696421628593308 -8.590958269940629 0 0 0
98 4 5 0.09 -6.121632779788681 6.643423330445788 -8.840939492600263 0 0 0
81 3 12 0.09 0.025760363736150538 0.4158250471976501 -7.811270390586847 0 0 0
79 3 10 -0.01 -0.10310536348615784 0.7104529242720385 -6.752012694982867 0 0 0
95 4 2 0.42 -4.364760134432237 4.546423082740546 -8.309748844285524 0 0 0
28 1 14 0.09 4.0690523560943035 8.494817279485659 -5.453811413737888 0 -1 0
228 8 11 0.09 -0.024601416944872057 4.5177923428358415 -3.614954613990135 0 0 0
230 8 6 -0.01 0.6611814409629879 6.5540734279024555 -2.435723135362333 0 0 0
231 8 7 0.09 0.5326027373251261 7.158820813740681 -1.5626939160386346 0 0 0
109 4 9 -0.34 -0.4159763333252169 5.880483899699607 -7.755113755913288 0 0 0
232 8 8 0.09 0.46578574691659647 7.067267552041866 -3.3828066403222783 0 0 0
110 4 10 -0.01 0.36888333099227566 5.3410186743135295 -7.5732564943062215 0 0 0
111 4 11 0.09 0.44548012524348835 4.613884595732474 -6.258641999449358 0 0 0
199 7 6 -0.01 0.6932003685345354 1.3923971714872945 -1.8784234700743676 0 0 0
80 3 11 0.09 -0.12035700172994268 -0.403840421043725 -5.705606009275005 0 0 0
92 3 16 -0.65 3.5353554643205705 -0.2866796543426986 -8.504411626506023 0 0 0
93 3 17 0.42 2.6112389745245377 0.02561338965680804 -8.333309214562716 0 0 0
90 3 14 0.09 4.734836339338505 0.2522119624448784 -6.827694890055955 0 0 0
205 7 12 0.09 2.630034998487961 2.182370684902004 -1.0568057744455803 0 0 0
248 8 17 0.42 5.83414246795094 6.901650144680085 -5.360839505807448 0 0 0
247 8 16 -0.65 6.675237258453722 7.3789602490657416 -5.365747566797022 0 0 0
124 4 17 0.42 3.7187044511737763 5.467934107865991 -5.801922879683431 0 0 0
88 3 12 0.09 2.97359516555254 2.377051996370138 -7.771059493508647 0 0 0
91 3 15 0.09 4.911616771859482 1.3045433880658184 -8.183482284666551 0 0 0
123 4 16 -0.65 4.5216226748645205 4.906568607671057 -5.911486783832723 0 0 0
202 7 9 -0.34 1.8899651615761748 1.5137934399642852 -2.6096753207280283 0 0 0
233 8 9 -0.34 2.035719469267784 6.153240189597611 -2.4891370058811306 0 0 0
203 7 10 -0.01 2.431091235569287 2.232716062664947 -2.1717210197931633 0 0 0
204 7 11 0.09 2.263545976656463 3.6915732189265995 -2.6864327077256984 0 0 0
206 7 6 -0.01 3.81512359682287 1.879466535523619 -2.6715213485113205 0 0 0
207 7 7 0.09 3.8718534067928 0.7424886237024886 -2.614530607640548 0 0 0
208 7 8 0.09 3.9601245570703547 2.394108878849961 -3.60821854143844 0 0 0
112 4 12 0.09 0.5809467044217165 4.552097661587965 -8.352239312633374 0 0 0
113 4 6 -0.01 1.517588516399213 6.326956218350102 -7.505512623562069 0 0 0
234 8 10 -0.01 2.632308361758035 6.7615214156074614 -2.8786476477720884 0 0 0
235 8 11 0.09 2.2692210185771025 7.001874066288142 -4.350083518079628 0 0 0
236 8 12 0.09 2.7333614023642063 7.7984934145503 -2.463019169538449 0 0 0
115 4 8 0.09 1.4363579839856406 6.960093397635498 -6.482688170832545 0 0 0
246 8 15 0.09 6.325150810026825 -8.530956682696479 -3.8637645761148534 0 1 0
239 8 8 0.09 4.12759415041204 5.222817673570603 -3.1630307302129923 0 0 0
84 3 8 0.09 1.4988298774412474 1.4495225411195705 -5.502654201539551 0 0 0
237 8 6 -0.01 4.107192918046813 6.270725942748708 -2.812190861617439 0 0 0
209 7 9 -0.34 4.769978001991381 2.3884867791587485 -1.73880358709315 0 0 0
238 8 7 0.09 4.383472890711122 6.428567903709636 -1.718765062158094 0 0 0
242 8 11 0.09 6.39335877437186 5.424950588199911 -3.929963595813337 0 0 0
244 8 13 0.05 6.747045599397959 7.816179620242021 -4.053865196157554 0 0 0
82 3 6 -0.01 1.1457787211127712 1.524098525688828 -6.538868869146006 0 0 0
83 3 7 0.09 1.078472543465045 2.519463899061046 -7.04174661744997 0 0 0
122 4 15 0.09 4.495959986895617 3.8729446993495245 -7.755984421487706 0 0 0
120 4 13 0.05 4.558247781850277 4.90430761819176 -7.318401877777656 0 0 0
85 3 9 -0.34 2.2501508242817145 0.8334992619583979 -7.238951619391811 0 0 0
86 3 10 -0.01 3.0149721651100716 1.45786644933359 -7.181683696280237 0 0 0
87 3 11 0.09 3.3198125245096044 1.9256787241858273 -5.732890803451149 0 0 0
89 3 13 0.05 4.181512623782593 0.6353531322121153 -7.685475335711631 0 0 0
210 7 10 -0.01 5.694060007956979 2.2007202073523953 -2.00544918389902 0 0 0
211 7 11 0.09 6.144322874491378 3.269702472883658 -3.121933693895431 0 0 0
212 7 12 0.09 6.037932634469298 1.176398456656182 -2.476215152840396 0 0 0
216 7 16 -0.65 7.9105700410524715 2.024897361669783 -0.7232814304770674 0 0 0
240 8 9 -0.34 5.014408970246214 6.956491842285095 -3.6196186672179564 0 0 0
241 8 10 -0.01 5.927535874832541 6.721527333150545 -3.360831027425739 0 0 0
243 8 12 0.09 6.267750366437811 6.808251476439578 -2.236011198883035 0 0 0
245 8 14 0.09 7.775356691271577 7.750994525909842 -3.672921045195225 0 0 0
116 4 9 -0.34 2.759268770739517 5.695800087549541 -7.246700055760138 0 0 0
117 4 10 -0.01 3.5296811158004413 5.875114003693874 -7.813010118124074 0 0 0
119 4 12 0.09 3.387286749678651 5.672766081493958 -8.89281262767377 0 0 0
118 4 11 0.09 4.141161216397309 7.272775723162068 -7.893630034062237 0 0 0
121 4 14 0.09 5.627717991455892 5.2597557358204465 -7.610663322888289 0 0 0
213 7 13 0.05 6.512100563977183 2.474385616915127 -0.6889910184903876 0 0 0
215 7 15 0.09 6.482394813399209 3.536622860308352 -0.543705541383563 0 0 0
114 4 7 0.09 1.6992893867854804 6.923062893202875 -8.438940392529274 0 0 0
214 7 14 0.09 6.089037919635794 1.941291623910283 0.17083098377865902 0 0 0
217 7 17 0.42 8.410665126625927 2.4858321247684803 -0.01993618953627241 0 0 0
386 13 7 0.09 -1.1619901259679875 -8.288230108332453 8.61269986759604 0 0 0
49 2 11 0.09 -3.3695826125133443 -1.3667361105103426 -8.480386738380473 0 0 0
376 13 4 0.09 -6.142293060158314 -6.764998766218929 7.6373898246677765 0 0 0
385 13 6 -0.01 -1.3246442002998098 -7.365279957110366 -9.232191132885406 0 0 1
139 5 8 0.09 -0.6008629443035005 -5.798117764227352 0.1370299498315024 0 0 0
283 10 4 0.09 -1.9903313813148458 -3.9333851157466073 1.4184608658418334 0 0 0
128 5 4 0.09 -5.023052251491132 -4.274005153012758 0.4605486553303493 0 0 0
127 5 3 0.05 -4.96245889496527 -5.363324588352167 0.6276956754519372 0 0 0
125 5 1 -0.65 -4.110312609259822 -5.626730490707377 1.7272964940976152 0 0 0
129 5 5 0.09 -5.92642559155169 -5.859033554657316 0.9678060577234966 0 0 0
286 10 7 0.09 -2.4801882244037463 -1.2579992897997903 2.0239220426336235 0 0 0
126 5 2 0.42 -3.413384125987225 -6.240159678538464 1.364441001642275 0 0 0
251 9 3 0.05 -0.5392008094557976 -5.5307776994908675 4.531680112610143 0 0 0
253 9 5 0.09 -1.1998634063386646 -6.389949915334949 4.686409065369087 0 0 0
381 13 9 -0.34 -3.2857892355681066 -7.260406623058335 8.70019236539889 0 0 0
404 14 1 -0.65 -6.663290537167564 -4.280678503181293 6.7108109006991015 0 0 0
405 14 2 0.42 -5.976227331076702 -3.726514791260578 6.418420845020622 0 0 0
406 14 3 0.05 -7.119886655595362 -4.9166849382544235 5.458060372991181 0 0 0
407 14 4 0.09 -7.994828377488307 -4.490568532437197 5.098010618091418 0 0 0
408 14 5 0.09 -7.212297005645981 -6.080188639792086 5.691276113581056 0 0 0
409 14 6 -0.01 -5.86997325811507 -4.6350945447199505 4.5345796662384465 0 0 0
410 14 7 0.09 -5.5927813300412925 -5.633272921136596 4.133048423934296 0 0 0
411 14 8 0.09 -6.139548293146143 -3.7977333714233907 3.888075401332671 0 0 0
249 9 1 -0.65 0.5447670859274591 -5.629815455053496 5.474676204836358 0 0 0
375 13 3 0.05 -5.318676806529361 -7.5351529592835895 7.566646273519632 0 0 0
380 13 8 0.09 -4.166002529407627 -5.831203222712761 7.5883462790500555 0 0 0
378 13 6 -0.01 -3.9892677062123925 -6.937370970544598 7.4969760582351075 0 0 0
379 13 7 0.09 -3.3981784870122747 -7.357022254500121 6.664080344890767 0 0 0
374 13 2 0.42 -4.4412519494031155 -7.972379441227672 -9.191348796554882 0 0 1
382 13 10 -0.01 -2.5406191496141597 -6.62372291641232 8.880428161667522 0 0 0
383 13 11 0.09 -3.0078952150995635 -5.716316937169211 -8.413959948269609 0 0 1
138 5 7 0.09 -0.98949997353599 -7.752832690154524 0.1382021073156281 0 0 0
282 10 3 0.05 -1.7840477458973165 -2.8993973089389353 1.0880658999463115 0 0 0
412 14 9 -0.34 -4.954490539380412 -4.1503625066384515 5.510934556022217 0 0 0
285 10 6 -0.01 -1.5891223092401248 -1.8828103442759332 2.140361188648768 0 0 0
287 10 8 0.09 -1.4060033315010685 -2.2340898467112575 3.172835140033534 0 0 0
413 14 10 -0.01 -4.057302107281224 -3.918834365059725 5.110017808528193 0 0 0
415 14 12 0.09 -3.394553301056308 -4.80701637865523 5.16377642678275 0 0 0
416 14 6 -0.01 -3.434864818344183 -2.7959442874609346 5.989381202416794 0 0 0
417 14 7 0.09 -3.7250062258014243 -2.9841984876125807 7.117059261514013 0 0 0
418 14 8 0.09 -3.877723944653015 -1.8383145521780424 5.71863046397749 0 0 0
419 14 9 -0.34 -1.984735105907106 -2.775305421061506 5.782505744231683 0 0 0
420 14 10 -0.01 -1.6470210539468333 -1.9615214486663008 6.192487259355547 0 0 0
421 14 11 0.09 -1.9137992146860405 -0.6810067627428662 5.360609140077603 0 0 0
422 14 12 0.09 -2.029161900126361 -1.8077890697587442 7.229457900374372 0 0 0
384 13 12 0.09 -2.2090865901861934 -5.900968078589022 8.084827865253805 0 0 0
315 11 5 0.09 -4.892668951877438 0.6107115760107789 1.439074326742503 0 0 0
414 14 11 0.09 -4.054749004694147 -3.3705182477639726 3.671258135096579 0 0 0
252 9 4 0.09 -1.0560975738160607 -4.518571253320311 4.637699810987057 0 0 0
313 11 3 0.05 -4.950765059255173 1.123234311568897 2.429313771580002 0 0 0
388 13 9 -0.34 -0.2216259852783491 -6.4667754667098025 -9.200244506237423 0 0 1
435 15 1 -0.65 -4.169539311378165 -0.3138916688281128 7.774899268457018 0 0 0
314 11 4 0.09 -6.018519082441201 1.3998892552696987 2.7140424626819772 0 0 0
400 13 14 0.09 5.7365519623821815 -5.845629369235265 8.427031348966294 0 0 0
57 2 12 0.09 0.31606075900402253 -3.197493298971909 -9.23733517825863 0 0 0
56 2 11 0.09 0.9943922350825076 -1.1467227526361397 -9.213768092964209 0 0 0
276 9 14 0.09 7.887593603294588 -1.2237762258620988 0.811132495555654 0 0 0
403 13 17 0.42 4.688850350473238 -7.882006176859004 -9.12718159643732 0 0 1
143 5 12 0.09 1.1361714087092931 -6.656285578353348 -0.1801442774955131 0 0 0
294 10 8 0.09 2.037434408767531 -1.3970439161145638 1.3731411450547064 0 0 0
399 13 13 0.05 4.866696091653875 -6.376251207961557 7.998217946432375 0 0 0
401 13 15 0.09 4.944992698908036 -6.4173304899359565 6.852083984212554 0 0 0
254 9 6 -0.01 -0.06432647044464801 -5.601894242752178 3.211740140747267 0 0 0
250 9 2 0.42 1.2355259064002322 -5.923352441256494 4.892389914118475 0 0 0
288 10 9 -0.34 -0.4320512089502593 -1.1786753359390012 1.7452087958200195 0 0 0
255 9 7 0.09 -0.35183464645206897 -6.610604695100038 2.8023157052643413 0 0 0
291 10 12 0.09 -0.09954672114520235 -0.5606514958707933 3.322989131001451 0 0 0
257 9 9 -0.34 1.3361751912561033 -5.547016543825631 3.5011815988363573 0 0 0
258 9 10 -0.01 1.9723508975523796 -5.516352608796101 2.736611428357941 0 0 0
262 9 7 0.09 3.564796012145278 -5.451435338890098 4.20202962434932 0 0 0
263 9 8 0.09 2.9853807398620553 -3.7467437953640657 3.499090280201001 0 0 0
259 9 11 0.09 1.5088883843078413 -4.791150741091785 1.479782946716373 0 0 0
261 9 6 -0.01 3.19690740155505 -4.863584133396731 3.343521154540543 0 0 0
289 10 10 -0.01 0.22275580147108087 -1.1741885778075378 2.5047991390151196 0 0 0
292 10 6 -0.01 1.6073447224299109 -0.5908095839808603 1.9498557219768031 0 0 0
264 9 9 -0.34 4.265931516267168 -4.838456317374879 2.3809365888970166 0 0 0
295 10 9 -0.34 2.6327677606765008 -0.3217203960185646 2.8931651386285058 0 0 0
265 9 10 -0.01 4.599570652337597 -3.963013102637807 2.2609247298267032 0 0 0
266 9 11 0.09 3.4768189603097266 -3.1055924059272293 1.6131162934579493 0 0 0
267 9 12 0.09 4.988731527071764 -3.329130726869261 3.1512380423670443 0 0 0
268 9 6 -0.01 5.75101352320786 -4.025747796217089 1.278876447825441 0 0 0
269 9 7 0.09 6.579556850921451 -4.629298668119328 1.691849953068136 0 0 0
270 9 8 0.09 5.233128151601953 -4.396471648836097 0.3437368001813095 0 0 0
389 13 10 -0.01 0.5664229366730762 -6.823041726046651 8.881625613220146 0 0 0
391 13 12 0.09 0.4830059555721764 -7.0460523222334785 7.773726883605702 0 0 0
392 13 6 -0.01 1.6310222130026553 -5.764728636045154 8.94652266241671 0 0 0
393 13 7 0.09 1.3684238383009788 -4.823626792885944 8.378032991008348 0 0 0
395 13 9 -0.34 2.862202801642548 -6.310387469936343 8.474830687682038 0 0 0
396 13 10 -0.01 3.6456433966448856 -5.682597808272689 8.492367580708978 0 0 0
398 13 12 0.09 3.491729926797845 -4.666214301276633 7.925218544156801 0 0 0
423 14 6 -0.01 -0.21077512826961886 -2.3841300708185207 6.355882936544193 0 0 0
424 14 7 0.09 -0.12570234835388483 -2.7240957169054845 7.364737916173594 0 0 0
425 14 8 0.09 0.0782010832536919 -3.1634435309300475 5.554951471013974 0 0 0
426 14 9 -0.34 0.6738865710267561 -1.2853316140980233 6.287126780402723 0 0 0
427 14 10 -0.01 1.539328093730962 -1.4013152694383892 5.834844262114455 0 0 0
428 14 11 0.09 2.234665307410685 -0.08154844284694995 5.579195865487078 0 0 0
260 9 12 0.09 2.204026106057473 -6.578753043644634 2.345021407760246 0 0 0
432 14 15 0.09 2.130579594177444 -1.9081706787390438 7.74698848916332 0 0 0
296 10 10 -0.01 3.4562245016809445 -0.0014762294826304867 2.516470838590333 0 0 0
271 9 9 -0.34 6.194043980579897 -2.781623552923554 0.931662309962066 0 0 0
272 9 10 -0.01 6.478202834284774 -2.6394785243047965 0.03170582979599246 0 0 0
274 9 12 0.09 7.292696969272063 -3.3026589813023337 -0.4332343938087728 0 0 0
277 9 15 0.09 6.287946802389728 -0.5584275571088106 0.3823093140589453 0 0 0
429 14 12 0.09 1.442285883673465 -1.8614371579330538 4.720817420599218 0 0 0
275 9 13 0.05 7.092311016446439 -1.2768489278946298 0.03788052085768179 0 0 0
430 14 13 0.05 2.454036686384809 -2.1583101407914924 6.700568165804519 0 0 0
431 14 14 0.09 2.195375708333941 -3.2368554333411836 6.637334329005599 0 0 0
433 14 16 -0.65 3.7861532148313017 -1.938764229648311 6.336201209467726 0 0 0
434 14 17 0.42 4.1496908588988095 -1.234387133157397 6.9015797843402265 0 0 0
290 10 11 0.09 0.46978630065322413 -2.569870376133153 3.1023559356985455 0 0 0
297 10 11 0.09 3.8217299298566143 -0.3450091350119209 1.0062027189171285 0 0 0
301 10 8 0.09 5.137813866649996 -1.2462532955452366 3.215701506407738 0 0 0
299 10 6 -0.01 4.564097838372275 -0.29819122021909195 3.4562417978578264 0 0 0
256 9 8 0.09 -0.33206661880791266 -4.662633689931976 2.766111547362895 0 0 0
402 13 16 -0.65 4.9058011018754915 -7.765709763361468 8.46059620646019 0 0 0
366 12 11 0.09 3.8117879649123516 -7.468260319750868 -0.13461507627912184 0 1 0
363 12 8 0.09 1.637261456473448 8.42957016125203 -0.18052356247421386 0 0 0
493 16 14 0.09 2.488280854383669 -7.835134473448463 6.646870809736917 0 1 0
370 12 15 0.09 5.081082333349844 -7.280377415528773 1.9498836111550908 0 1 0
369 12 14 0.09 4.067974471200154 -8.211253912753854 3.1026591547545905 0 1 0
353 12 12 0.09 -2.1717055370843363 7.437596921110298 0.09843505849782197 0 0 0
200 7 7 0.09 0.9014658346708977 0.7053096633396958 -1.0041313734591881 0 0 0
377 13 5 0.09 -5.528971592756826 -8.320479497356995 6.839609983039724 0 0 0
352 12 11 0.09 -2.5563610858494785 -8.655576721390632 1.8642764802272822 0 1 0
348 12 7 0.09 -4.238162600407602 8.106631846488117 0.41468815407813153 0 0 0
346 12 5 0.09 -5.715053991766509 6.282720964585524 -0.09199376022065664 0 0 0
449 15 8 0.09 -1.4034657927874115 1.3687290676685357 8.706375285455605 0 0 0
349 12 8 0.09 -4.736223741866749 7.709985004348546 2.308466500546597 0 0 0
347 12 6 -0.01 -4.366247748346818 7.341263653599597 1.2795405966888875 0 0 0
107 4 7 0.09 -1.7902858456753687 5.5378993409589405 -9.255603864596837 0 0 0
344 12 3 0.05 -5.255312624917719 6.18075837645406 0.9198239889964608 0 0 0
345 12 4 0.09 -6.068691975564399 5.981291209324912 1.6443565601895003 0 0 0
439 15 5 0.09 -5.028737535609558 -0.22168561035285528 5.957700737542465 0 0 0
445 15 11 0.09 -3.208833060540588 3.134376559213914 8.05672501503871 0 0 0
351 12 10 -0.01 -2.342531876290913 7.278665385166358 1.2123501472541989 0 0 0
438 15 4 0.09 -6.113242652523453 0.18420200954596844 7.336755366900745 0 0 0
442 15 8 0.09 -5.0303045232972545 2.3149748369107197 7.566686256693712 0 0 0