LAMMPS data file by xyan11@uic.edu

       8 atoms
       7 bonds
      13 angles
      10 dihedrals
       4 impropers
 
       8 atom types
       7 bond types
      13 angle types
      10 dihedral types
       4 improper types
 
   -1.    4. xlo xhi
   -1.    1. ylo yhi
   -1.    1. zlo zhi

Masses

       1     12.011  
       2      1.008  
       3      1.008 
       4     15.9994  
       5     12.011
       6      1.008  
       7      1.008 
       8      -999

Atoms 

     1 1 1 -0.01  0.000000  0.00000  0.000000
     2 1 2  0.09 -0.037480 -0.89833 -0.623659
     3 1 3  0.09 -0.036203  0.89707 -0.625535
     4 1 4 -0.34  1.174550  0.00000  0.799795
     5 1 5 -0.01  2.349479  0.00000  0.000000
     6 1 6  0.09  2.387060  0.89828 -0.623735
     7 1 7  0.09  2.385087 -0.89713 -0.626167
     8 1 8  0.00  3.524029  0.00000  0.799795 

Bonds 

     1      1      1      2
     2      2      1      3
     3      3      1      4
     4      4      4      5
     5      5      5      6
     6      6      5      7
     7      7      5      8

Angles 

     1      1      1      4      5  
     2      2      4      5      8  
     3      3      4      1      2  
     4      4      4      1      3  
     5      5      4      5      6  
     6      6      4      5      7  
     7      7      8      5      6  
     8      8      2      1      3  
     9      9      6      5      7  
    10     10      8      5      7  
    11     11      5      8      9  
    12     12      5      8      10
    13     13      5      8      11 

Dihedrals

     1      1      8      5      4      1 
     2      2      2      1      4      5 
     3      3      6      5      4      1 
     4      4      7      5      4      1 
     5      5      3      1      4      5 
     6      6      4      5      8     11 
     7      7      6      5      8     11
     8      8      7      5      8     11
     9      9      9      8      5      4
    10     10     10      8      5      4
    11     11      5      8     11     12

Impropers

     1      1      5      4      8      6 
     2      2      5      4      8      7 
     3      3      1      2      4     -2 
     4      4      1      3      4     -2 
