LAMMPS data file by xyan11@uic.edu

       5 atoms
       4 bonds
       4 angles
       2 dihedrals
       1 impropers
 
       5 atom types
       4 bond types
       4 angle types
       2 dihedral types
       1 improper types
 
   -3.    2. xlo xhi
   -1.    1. ylo yhi
   -1.    1. zlo zhi

Masses

       1     15.9994  
       2      1.008  
       3     12.011  
       4      1.008  
       5      1.008  
       6      -999


Atoms 

     1      1      1  -0.65    -1.174550   0.00000  -0.799795
     2      1      2   0.42    -2.000000   0.00000  -0.100000
     3      1      3   0.05     0.000000   0.00000  -0.000000
     4      1      4   0.09     0.037480  -0.89833   0.623659
     5      1      5   0.09     0.036203   0.89707   0.625535
     6      1      6   0.00     1.174550   0.00000  -0.799795

Bonds 

     1      1      4      3
     2      2      5      3
     3      3      1      3
     4      4      2      1
     5      5      6      3

Angles 

     1      1      4      3      5
     2      2      4      3      1
     3      3      5      3      1
     4      4      3      1      2
     5      5      6      3      4
     6      6      6      3      5
     7      7      6      3      1
     8      8      7      6      3
     9      9      8      6      3
    10     10      9      6      3

Dihedrals

     1      1      4      3      1      2 
     2      2      5      3      1      2
     3      3      4      3      6      9 
     4      4      5      3      6      9
     5      5      7      6      3      1 
     6      6      8      6      3      1

Impropers

     1      1      3      4      1      6 
     2      2      3      5      1      6 

