LAMMPS data file by xyan11@uic.edu

       5 atoms
       4 bonds
       4 angles
       2 dihedrals
       1 impropers
 
       5 atom types
       4 bond types
       4 angle types
       2 dihedral types
       1 improper types
 
   -1.    3. xlo xhi
   -1.    1. ylo yhi
   -1.    1. zlo zhi

Masses

       1     12.011  
       2      1.008  
       3      1.008  
       4     15.9994  
       5      1.008  


Atoms 

     1      1      1   0.05     0.000000   0.00000   0.000000
     2      1      2   0.09    -0.037480  -0.89833  -0.623659
     3      1      3   0.09    -0.036203   0.89707  -0.625535
     4      1      4  -0.65     1.174550   0.00000   0.799795
     5      1      5   0.42     2.000000   0.00000   0.100000

Bonds 

     1      1      2      1
     2      2      3      1
     3      3      4      1
     4      4      5      4
     

Angles 

     1      1      2      1      3
     2      2      2      1      4
     3      3      3      1      4
     4      4      1      4      5

Dihedrals

     1      1      2      1      4      5 
     2      2      3      1      4      5

Impropers

     1      1      1      2      4     -2 
     2      2      1      3      4     -2 

