648
 Atoms. Timestep: 10000
2 3.86047 8.35653 2.28856
1 4.51799 7.95481 2.85646
1 3.35548 8.92447 2.8705
2 3.4142 1.0021 17.2379
1 4.31585 1.31997 17.1908
1 3.48092 0.155553 17.6796
2 5.59661 0.326112 2.04006
1 5.78169 18.102 2.20594
1 6.24452 0.586886 1.3855
2 5.27946 0.694192 14.135
1 4.34099 0.664328 14.3211
1 5.68853 0.842487 14.9876
2 16.7889 1.42269 5.2128
1 16.6428 0.852658 5.96776
1 15.9245 1.51729 4.8127
2 12.966 3.34316 2.45416
1 12.5283 4.14899 2.72863
1 13.3471 3.55529 1.60214
2 17.6271 13.1003 7.01278
1 17.0051 13.8084 7.17987
1 17.6818 13.049 6.05852
2 11.6069 1.42033 5.61074
1 11.4715 0.661115 6.17775
1 11.512 2.1744 6.19262
2 0.783123 3.29831 16.3666
1 1.2151 3.6092 17.1622
1 0.977202 2.36141 16.3386
2 7.51789 3.39274 14.1279
1 7.59386 4.13874 13.5329
1 7.0024 3.72382 14.8633
2 10.5155 1.95048 3.22569
1 10.7428 1.55312 4.06631
1 11.2678 2.50136 3.00936
2 9.07477 5.19072 1.60998
1 9.03707 4.33189 1.18899
1 9.88511 5.17302 2.11917
2 7.39828 0.588008 0.0598936
1 7.8164 0.150216 18.0187
1 7.99649 1.30002 0.286647
2 1.68893 8.20281 18.0101
1 1.2003 8.76816 18.6083
1 2.22655 7.65549 18.5825
2 10.1949 10.4136 4.22835
1 9.31201 10.3755 3.86045
1 10.18 11.174 4.8096
2 0.479696 9.70914 2.36682
1 0.782979 10.5275 2.75993
1 18.4645 9.97177 1.78774
2 3.50278 9.8648 5.45762
1 2.61235 10.1458 5.66839
1 3.79745 9.39555 6.23814
2 2.86385 10.3151 8.33322
1 2.26107 9.61067 8.09524
1 2.65091 11.0272 7.73002
2 10.9113 6.87152 16.4486
1 10.6004 6.43629 15.6547
1 10.1502 6.88419 17.029
2 13.3612 4.45461 17.4197
1 14.1346 4.44884 16.8558
1 13.5662 5.09425 18.1017
2 8.25659 11.5271 15.2823
1 8.17843 12.4724 15.1538
1 8.03042 11.3904 16.2023
2 7.44252 11.4027 17.8366
1 6.55148 11.0928 17.6744
1 7.53493 11.3799 0.0887646
2 13.756 2.94771 14.2208
1 13.8672 3.88334 14.3895
1 14.3899 2.75121 13.5311
2 17.3329 12.3104 17.9628
1 18.2222 12.4482 18.289
1 16.84 13.0658 18.2833
2 2.44213 6.36016 1.05116
1 3.07616 5.64307 1.05469
1 2.8154 7.01346 1.64285
2 5.8682 14.1892 -0.0347484
1 5.40574 14.6135 17.9428
1 6.37166 13.489 18.2501
2 6.57043 5.59555 12.6908
1 6.25514 5.97587 11.871
1 6.89608 6.34291 13.1925
2 10.1572 13.7373 17.754
1 10.0012 13.3802 18.6283
1 10.4713 12.9915 17.2427
2 17.2429 17.6612 7.77542
1 16.7731 17.3213 7.01389
1 16.5535 17.9458 8.3754
2 1.2789 2.25956 4.40471
1 0.636726 2.6825 3.83465
1 1.60338 2.96446 4.96512
2 7.00092 4.56093 3.21194
1 6.34828 4.25837 2.58048
1 7.6971 4.93929 2.6749
2 1.99248 15.4506 0.729085
1 1.15712 15.8944 0.582531
1 2.21501 15.652 1.63801
2 2.49828 0.312058 14.725
1 2.06987 18.1643 14.6088
1 2.70973 0.348249 15.6579
2 7.18845 16.2028 15.3223
1 7.21549 15.749 14.48
1 6.28576 16.0974 15.6228
2 4.93191 12.2136 11.8058
1 4.84959 12.1609 10.8536
1 5.86824 12.3401 11.9591
2 4.67193 16.1947 16.2505
1 4.07913 15.4575 16.1042
1 4.29721 16.6592 16.9989
2 5.81165 7.15021 3.63269
1 6.16249 6.29949 3.36922
1 5.82537 7.12955 4.58956
2 9.23005 17.908 4.42511
1 9.69679 17.8375 3.59239
1 8.69567 -0.00327253 4.3347
2 10.6801 16.8068 9.4296
1 10.2233 16.0159 9.1432
1 10.0539 17.2524 10.0001
2 16.3532 7.05394 18.6445
1 16.666 7.95814 18.6161
1 17.1492 6.52667 0.0125407
2 12.8774 5.18324 5.72323
1 12.1424 5.0507 5.12455
1 13.6039 5.44426 5.15725
2 12.0717 0.779649 14.5616
1 12.4211 1.6658 14.4671
1 12.5325 0.419557 15.3194
2 16.8171 5.70874 4.81112
1 17.2737 6.51354 4.56604
1 16.1772 5.57353 4.11225
2 2.3659 6.55648 11.3697
1 1.73901 7.02515 10.8187
1 2.76834 7.23781 11.9083
2 11.0692 2.91257 17.7845
1 10.4922 2.81265 17.0274
1 11.6611 3.62488 17.5428
2 14.6196 9.84071 1.09351
1 13.7631 9.55516 0.775445
1 14.7198 9.40292 1.9388
2 16.5494 6.19482 12.4104
1 17.414 6.33771 12.7956
1 16.1526 7.06542 12.3816
2 14.3423 2.15143 4.47312
1 13.5703 2.04677 5.02921
1 14.0441 2.70307 3.74991
2 3.24614 8.69012 12.7391
1 3.9737 9.0084 13.2735
1 2.88875 9.47681 12.3272
2 16.6119 10.7392 8.46957
1 16.8685 10.5828 9.3784
1 16.9895 11.5927 8.25708
2 10.8913 5.08714 3.96722
1 10.6468 5.9634 4.2649
1 10.2052 4.51612 4.31283
2 13.272 9.812 6.03683
1 12.7346 9.17269 6.50448
1 13.5671 10.4194 6.71519
2 18.5347 10.0564 6.36345
1 17.8015 10.1799 6.96633
1 0.247262 10.9182 6.30804
2 13.2495 15.8886 9.60464
1 13.0643 14.9927 9.88627
1 12.3958 16.3215 9.60468
2 13.713 6.27247 0.694082
1 14.5995 6.56883 0.487788
1 13.1581 7.0311 0.512949
2 7.15928 14.7047 6.45295
1 7.54766 13.8986 6.1129
1 7.21084 15.3223 5.72344
2 5.19535 13.067 6.69852
1 5.22105 12.4552 5.9628
1 5.83897 13.7391 6.47434
2 11.873 16.2531 4.1422
1 11.9251 16.9053 3.44352
1 11.493 16.7251 4.88322
2 9.63266 9.69973 18.0024
1 8.90105 10.2838 18.2019
1 10.1099 10.1437 17.3014
2 14.7427 14.9784 7.54132
1 14.0412 14.7695 6.9245
1 14.2897 15.3108 8.3163
2 7.27235 11.9783 1.74543
1 8.18902 12.251 1.70585
1 6.77808 12.798 1.74989
2 9.83889 10.9902 12.806
1 10.6655 10.9798 13.2886
1 9.1693 10.8418 13.4738
2 4.04609 12.353 1.8804
1 4.16703 13.07 1.25789
1 4.01587 11.5657 1.33678
2 15.9781 12.6153 2.95324
1 15.098 12.5377 3.32168
1 16.049 11.8801 2.34437
2 -0.0469134 13.3752 4.45816
1 -0.0313447 14.3065 4.67879
1 17.8311 13.2549 3.98311
2 7.11764 9.47637 6.3159
1 7.64914 9.97516 5.69545
1 7.39044 9.79527 7.1762
2 2.55227 3.41032 6.40345
1 2.41319 3.0841 7.29253
1 2.81362 4.32361 6.52107
2 5.38477 11.4723 4.15028
1 4.76896 10.8362 4.51407
1 4.95073 11.8041 3.3643
2 13.5278 12.1224 3.93781
1 13.2997 11.4963 4.62499
1 13.6041 12.961 4.39292
2 7.61596 15.6728 3.86513
1 7.20066 15.8382 3.01873
1 8.22001 16.4059 3.98342
2 13.9969 0.193716 7.80014
1 13.8434 0.0772021 8.73774
1 13.7874 1.11302 7.63509
2 10.6498 2.57742 10.0687
1 11.1655 1.93724 10.5591
1 10.2992 2.08522 9.32639
2 0.245709 4.61739 9.04417
1 1.09071 4.23885 9.28689
1 18.6214 4.05091 8.34417
2 3.22914 4.57618 9.7867
1 3.34424 5.01974 8.94633
1 2.7674 5.21252 10.3327
2 4.23326 1.84887 10.6904
1 4.21831 1.00374 11.1395
1 4.43713 2.48262 11.3781
2 8.29557 15.558 8.65665
1 8.04842 15.3038 7.76754
1 7.50776 15.9644 9.0178
2 6.19182 17.345 9.39529
1 5.94433 17.9714 10.0754
1 5.55032 16.639 9.47439
2 15.3496 4.25841 8.79562
1 15.7366 4.16581 7.92503
1 16.0773 4.10755 9.39895
2 9.37805 1.78881 7.99566
1 9.35354 0.862398 7.75609
1 9.13591 2.25074 7.19302
2 8.80665 6.99787 18.0736
1 8.79159 7.94831 18.1862
1 9.04677 6.65785 0.23526
2 5.60863 1.09073 8.30884
1 5.53247 1.56857 9.13473
1 5.98793 0.246761 8.55397
2 8.86908 3.48245 5.32108
1 8.6242 4.34777 5.64893
1 8.18963 3.26673 4.68229
2 11.9629 7.47952 7.14478
1 11.183 7.55485 7.69469
1 11.9656 6.56694 6.85597
2 0.0929444 7.21715 9.74258
1 0.070349 6.3129 9.42944
1 17.9292 7.35884 10.1294
2 0.736254 16.7959 13.9983
1 0.878069 16.7535 13.0526
1 0.0292889 17.4321 14.1066
2 7.46925 10.1196 9.2763
1 7.20816 9.61043 10.0436
1 6.83207 10.8326 9.23328
2 12.5624 8.54943 18.45
1 11.9066 9.16355 0.0800403
1 12.1234 8.09267 17.7324
2 10.5205 7.68911 4.87619
1 10.3056 8.59021 4.63526
1 11.0273 7.77107 5.68411
2 14.094 5.66269 13.6173
1 14.9899 5.6368 13.2814
1 13.544 5.66949 12.8339
2 13.4157 2.84325 7.42607
1 12.9505 3.53229 6.95175
1 14.0408 3.31238 7.97875
2 2.35788 16.0375 7.66273
1 1.50519 16.0561 8.09724
1 2.57278 16.9587 7.51626
2 6.69988 4.25154 8.21812
1 7.55478 4.58443 7.94506
1 6.17647 4.24827 7.41671
2 4.2583 15.1258 9.29545
1 3.59777 15.3086 8.62724
1 4.5586 14.2383 9.0995
2 5.09278 10.0547 0.621877
1 5.9432 10.2176 1.02989
1 4.6487 9.45675 1.22314
2 15.7055 17.4044 10.1754
1 15.8334 17.3014 11.1184
1 14.9436 16.8605 9.97572
2 9.92964 12.5723 1.31681
1 9.92477 13.1017 2.11429
1 10.7172 12.0334 1.3913
2 18.4661 15.6267 9.21924
1 17.7988 16.1547 8.78097
1 18.0599 15.3637 10.0451
2 2.02515 18.3183 4.44899
1 2.30716 18.1952 5.35538
1 1.51928 0.430484 4.46329
2 3.71335 4.00015 15.5231
1 3.8278 3.87925 14.5805
1 2.84871 3.63389 15.7088
2 10.192 13.8979 3.9058
1 10.9125 14.5278 3.92562
1 9.40555 14.4358 3.81411
2 11.5621 11.1878 16.7255
1 12.1688 11.8003 17.1414
1 11.9469 11.015 15.8662
2 0.307198 15.9376 5.40294
1 0.604362 16.6836 4.88187
1 0.777963 16.0214 6.23215
2 17.1098 3.65166 6.85104
1 17.3656 4.36249 6.26322
1 16.799 2.95862 6.26852
2 17.8726 0.324789 14.0277
1 18.4824 1.01263 13.7607
1 17.2389 0.770742 14.5896
2 6.86379 0.751832 4.61001
1 6.43779 1.44677 5.11183
1 6.50587 0.839774 3.72661
2 11.7689 17.6486 6.74835
1 11.4171 17.5348 7.63125
1 12.6492 17.9991 6.88413
2 8.9624 17.6507 11.4368
1 9.63129 18.2448 11.7771
1 8.23464 18.2228 11.1934
2 15.6536 15.5983 16.0913
1 16.5734 15.3466 16.1741
1 15.6631 16.555 16.119
2 17.1093 4.12899 10.8416
1 17.8676 4.3699 10.3095
1 17.123 4.74687 11.5726
2 6.25021 4.32177 16.2888
1 6.44588 5.08787 16.8283
1 5.29758 4.23718 16.3286
2 4.47374 15.3234 12.192
1 3.77056 14.8341 12.619
1 4.30282 15.2215 11.2557
2 8.86438 4.86396 11.3504
1 8.5636 3.96542 11.2148
1 8.07842 5.34307 11.613
2 8.57238 17.9067 7.18887
1 8.75387 17.6544 6.28352
1 8.65349 17.0926 7.68571
2 16.2303 17.0813 13.0146
1 16.8197 17.8062 13.2228
1 15.4316 17.2727 13.5062
2 15.0096 -0.0116101 1.02497
1 14.7694 0.835727 0.650105
1 15.3848 18.1999 0.292461
2 10.0227 12.9303 8.95748
1 9.24458 13.1134 9.48401
1 10.2114 12.0063 9.12141
2 6.65636 0.366643 11.7236
1 6.79807 1.21823 11.3101
1 6.75832 0.534751 12.6604
2 8.56841 5.95864 6.21398
1 8.98358 6.70768 5.78641
1 8.98282 5.91413 7.07567
2 15.1518 2.3629 11.8191
1 15.9212 2.90449 11.6429
1 14.4305 2.82442 11.3915
2 0.545947 5.15779 12.7916
1 1.37779 5.3353 12.3526
1 0.60637 4.24053 13.0585
2 7.83589 9.22815 2.93625
1 7.26346 9.99492 2.96118
1 7.29114 8.5113 3.26121
2 9.36321 5.81743 14.1268
1 8.75311 6.54787 14.2291
1 9.33769 5.61251 13.1921
2 5.72855 5.90764 10.255
1 6.16533 5.43259 9.54801
1 4.84466 5.54111 10.2801
2 12.3288 10.7305 14.2349
1 12.5727 9.83108 14.4536
1 13.1459 11.2242 14.3036
2 18.5839 12.8243 13.1857
1 18.1518 13.6388 12.9285
1 18.0651 12.4994 13.9216
2 17.1749 -0.0365278 2.94597
1 16.2843 0.104552 2.62473
1 17.2494 0.538858 3.7073
2 9.85493 8.61806 8.98527
1 9.00783 9.06173 8.94277
1 10.4178 9.22152 9.47025
2 2.4941 13.2932 13.4478
1 1.57685 13.0811 13.2749
1 2.98736 12.7274 12.8539
2 14.9615 8.85595 3.8776
1 15.7898 8.53779 4.2368
1 14.4793 9.18088 4.6379
2 10.835 16.3211 17.1166
1 9.94757 16.6797 17.1107
1 10.728 15.4207 17.4231
2 7.49008 2.42771 10.28
1 8.15874 2.0398 9.71552
1 7.12271 3.14276 9.7604
2 12.5723 13.3965 10.2095
1 12.4013 13.6051 11.1279
1 11.7268 13.1054 9.86807
2 2.03132 10.5687 11.2872
1 2.46755 10.469 10.4411
1 1.09905 10.4819 11.0883
2 3.12975 14.5524 5.05199
1 3.97396 14.1766 5.30166
1 2.7587 14.8756 5.87302
2 3.10202 18.5595 7.05372
1 4.01341 18.5413 6.76169
1 3.09606 0.478927 7.78322
2 6.68058 14.1002 13.2216
1 5.98197 14.5315 12.7294
1 7.34239 13.8884 12.5632
2 12.6084 18.3095 2.15065
1 13.5519 18.2441 2.0033
1 12.4499 0.544316 2.28002
2 18.4361 15.4814 16.311
1 0.35994 14.893 16.7359
1 0.06035 15.5688 15.4147
2 14.3659 5.89362 3.47437
1 13.9518 5.80554 2.61587
1 14.5751 6.82496 3.54548
2 1.10166 12.8876 0.450019
1 1.40864 13.7813 0.602453
1 1.7265 12.5228 18.5236
2 2.92702 1.47663 1.98943
1 2.54814 1.50275 2.86807
1 3.79304 1.08806 2.11297
2 17.3311 15.04 11.7205
1 17.2467 15.8453 12.2311
1 16.5137 14.5681 11.8798
2 11.8274 10.646 1.8713
1 11.3264 10.6131 2.68625
1 12.7304 10.7974 2.15063
2 15.2672 13.6597 13.7688
1 15.3819 14.2919 14.4783
1 14.3861 13.8299 13.4357
2 5.32211 17.4914 5.64049
1 5.82857 18.2215 5.2846
1 5.97134 16.9382 6.07481
2 5.23636 2.54628 6.02969
1 5.47621 2.06891 6.82393
1 4.31814 2.78313 6.16011
2 4.017 17.9818 12.0767
1 4.05505 17.0264 12.1228
1 4.65869 18.2789 12.7219
2 8.56626 18.0561 16.8194
1 8.90536 0.00768189 16.206
1 8.02066 17.4818 16.2821
2 0.106856 1.19128 10.872
1 0.171697 0.240333 10.9599
1 17.9007 1.3465 10.6065
2 18.3045 16.7129 0.739228
1 18.0567 17.1948 1.52826
1 17.658 16.01 0.674312
2 18.0478 10.8107 11.0745
1 18.2858 11.6282 11.512
1 17.3003 10.4806 11.573
2 5.93626 6.98302 6.40194
1 6.75079 6.5247 6.19526
1 6.19045 7.90293 6.47527
2 1.04761 2.0969 13.293
1 1.75819 1.51487 13.5624
1 0.975244 1.96574 12.3476
2 11.0764 0.490596 11.9003
1 11.126 0.559275 12.8537
1 11.9692 0.27798 11.6282
2 13.8613 11.4888 8.16765
1 14.7922 11.6869 8.26968
1 13.4427 11.91 8.91832
2 17.3958 3.36085 0.699233
1 17.5446 3.34806 1.64471
1 17.8506 2.58388 0.374173
2 11.1798 10.5042 10.3312
1 12.069 10.2265 10.5513
1 10.7875 10.7411 11.1715
2 7.48168 7.82152 14.0511
1 7.08341 8.60535 13.6726
1 7.23249 7.84789 14.9749
2 13.188 4.04172 10.7991
1 13.3568 4.34698 9.9077
1 12.3314 3.61762 10.7493
2 15.4691 9.76072 16.5291
1 15.2693 9.00495 15.9767
1 15.2642 9.46946 17.4176
2 14.5523 2.59138 0.262999
1 15.4496 2.90958 0.362745
1 14.1836 3.12879 18.2622
2 5.57509 8.6946 10.6434
1 4.9004 8.50916 11.2965
1 5.65722 7.88117 10.1456
2 13.777 9.24628 10.0399
1 13.9408 9.77884 9.26159
1 14.0435 8.36255 9.78646
2 0.778633 6.6267 15.8631
1 0.394811 5.75016 15.8871
1 0.755423 6.9239 16.7727
2 5.12852 11.8223 9.131
1 4.44926 11.1754 8.94034
1 5.22292 12.3181 8.31762
2 9.89121 15.0274 12.4043
1 9.55641 15.851 12.0496
1 9.52765 14.9815 13.2886
2 1.91709 11.7327 3.57188
1 2.66653 12.1525 3.14963
1 1.36644 12.46 3.86176
2 14.0802 6.7066 8.92216
1 13.5483 6.85938 8.14114
1 14.6258 5.95298 8.69728
2 14.1777 12.8616 16.9328
1 14.8059 12.1735 17.152
1 14.2107 13.4626 17.6771
2 5.72873 16.1588 1.87773
1 4.96273 16.2045 2.44991
1 5.553 15.4159 1.3003
2 1.03342 17.3786 11.28
1 0.966843 16.776 10.5393
1 1.9157 17.7438 11.2137
2 14.0588 15.5248 18.4574
1 14.5454 15.6362 17.6407
1 13.3014 16.103 18.3662
2 18.0345 11.5165 15.3978
1 18.1096 10.5639 15.341
1 17.5516 11.6711 16.2097
2 15.5298 10.991 14.1819
1 15.5288 10.8548 15.1294
1 15.798 11.9031 14.0708
2 3.15844 16.3215 3.07373
1 3.25704 15.5873 3.67985
1 2.91267 17.0606 3.63008
2 4.67718 4.46088 1.43878
1 4.29118 3.58518 1.45879
1 4.91461 4.59759 0.52163
2 5.47193 12.6689 15.4069
1 4.6184 13.033 15.6418
1 5.6962 13.097 14.5806
2 16.0176 1.63569 15.7231
1 16.2713 2.5586 15.7328
1 15.0829 1.64591 15.5171
2 12.7325 7.9674 14.6081
1 12.1339 7.65963 15.2886
1 13.3536 7.24838 14.4917
2 2.15203 2.17727 8.9519
1 1.41195 1.88451 9.4837
1 2.87946 2.24623 9.57022
2 17.773 8.34546 4.30297
1 18.103 8.96583 4.95294
1 18.1121 8.66914 3.46842
2 1.53353 7.99245 7.20909
1 0.933702 8.2992 6.52914
1 0.975879 7.84735 7.97342
2 6.1646 6.1399 18.1969
1 7.0646 6.41312 18.3747
1 5.7634 6.89758 17.7713
2 4.69366 3.46524 13.0404
1 5.11478 2.69065 13.4131
1 5.40117 4.10384 12.9518
2 18.1326 3.73961 3.28956
1 17.6215 3.39733 4.02295
1 18.4562 4.58639 3.597
2 13.8609 14.4968 5.0625
1 14.6961 14.8867 5.32085
1 13.4148 15.1878 4.57291
2 16.4828 18.0802 17.1527
1 17.3207 17.826 17.5394
1 16.691 0.137228 16.6055
2 2.2985 3.51434 18.638
1 2.76592 2.8347 18.1524
1 2.1937 3.15173 0.817381
2 0.90673 0.60088 0.314775
1 1.66085 0.797237 0.870633
1 0.73661 18.3706 0.461023
2 13.5441 0.183519 11.1314
1 14.0544 0.910959 11.4874
1 14.1938 18.2094 10.933
2 9.0955 14.2135 15.133
1 9.30414 13.8696 16.0016
1 8.36701 14.8162 15.2822
2 10.1142 17.4275 1.84497
1 9.76502 17.5799 0.966872
1 10.9618 17.8723 1.84669
2 3.43584 8.96899 15.9428
1 3.1579 8.71086 15.064
1 2.8779 8.45936 16.5303
2 9.09398 2.42974 0.786562
1 9.81132 2.64763 0.191433
1 9.52759 2.12365 1.58313
2 6.06408 1.64857 16.7777
1 6.59986 1.34214 17.5093
1 6.49797 2.44854 16.481
2 9.57801 1.86406 15.5314
1 9.08342 2.47807 14.9886
1 10.3241 1.61054 14.988
2 1.81144 12.521 6.69004
1 2.23243 13.0237 5.99268
1 0.901252 12.8172 6.6835
2 16.3601 4.41744 16.311
1 16.5046 5.32943 16.0587
1 16.9572 4.2741 17.0453
2 5.45701 10.1752 13.5955
1 5.02624 10.8155 13.0292
1 5.60363 10.6425 14.418
2 12.1341 14.0592 13.0538
1 11.3652 14.546 12.7572
1 11.7933 13.4454 13.7045
2 15.7166 9.11712 11.995
1 14.989 9.14092 11.3735
1 15.3609 9.50246 12.7958
2 8.67087 12.8759 11.393
1 9.1294 13.6757 11.6506
1 8.96995 12.2159 12.0184
2 5.86975 8.6527 17.0956
1 5.63993 8.96831 17.9695
1 5.03658 8.61982 16.6255
2 0.0783989 5.66263 18.516
1 18.4763 4.80783 0.122576
1 0.894489 5.81388 0.292551
2 3.18976 13.8854 15.9808
1 3.12259 13.8308 15.0275
1 2.9466 13.0123 16.2888
2 0.12218 8.78971 14.3748
1 0.409252 8.72077 13.4643
1 0.514694 8.03187 14.8082
2 9.6952 5.65411 8.70768
1 9.47957 5.19585 9.51992
1 9.9423 6.53545 8.9877
2 9.00513 12.5346 6.147
1 9.30592 12.7751 7.02331
1 9.64428 12.9329 5.55617
2 16.3689 7.05802 15.7604
1 16.4133 7.0785 16.7163
1 17.1437 7.54155 15.4737
2 17.2426 9.81443 0.365732
1 17.4621 10.485 18.4192
1 16.3234 9.97712 0.577625
2 3.56217 5.84283 7.45061
1 4.37385 6.34887 7.48709
1 2.87148 6.5018 7.38037
2 16.3777 14.3557 0.882154
1 16.3538 13.9028 1.72512
1 15.512 14.7557 0.800039
2 2.06102 11.5577 16.6889
1 2.57056 10.7527 16.5958
1 1.27987 11.4102 16.1557
2 12.7255 18.3798 16.8952
1 12.248 0.281882 17.4656
1 12.144 17.6252 16.8026
2 16.3012 16.7232 5.14326
1 16.5429 17.4053 4.51682
1 17.131 16.3076 5.37763
2 3.74914 17.3809 18.4959
1 3.02722 16.8037 0.0444274
1 4.26967 17.4718 0.593802
648
 Atoms. Timestep: 10500
2 3.90553 8.37414 2.4617
1 4.67439 7.89162 2.76543
1 3.4275 8.59215 3.26182
2 3.3876 1.23818 16.9772
1 4.3316 1.38105 17.0456
1 3.23842 0.403377 17.4211
2 5.42891 0.626718 2.11813
1 5.46488 18.3784 2.2415
1 5.94605 0.785807 1.32852
2 5.19137 0.833763 14.1685
1 4.29154 0.754663 14.4851
1 5.71104 0.986075 14.9577
2 16.8935 1.53096 5.65546
1 16.7642 0.894147 6.3583
1 16.0451 1.57739 5.21461
2 12.8685 3.29627 2.5318
1 12.8028 4.25119 2.52512
1 13.3967 3.08666 1.76159
2 17.5472 12.8559 7.11836
1 16.8591 13.4807 7.34702
1 17.6418 12.9396 6.16953
2 11.7025 1.22744 5.62092
1 11.9634 0.373171 5.96502
1 11.236 1.64541 6.34469
2 0.954806 3.65032 16.1099
1 1.14913 3.29347 16.9765
1 0.856086 2.88031 15.5499
2 7.39231 3.20567 14.162
1 7.22716 3.88591 13.5091
1 7.04981 3.56873 14.9788
2 10.6241 1.88418 3.06149
1 10.7978 1.78574 3.99764
1 11.307 2.47924 2.752
2 9.10598 5.39614 1.66324
1 9.07902 4.53596 1.24421
1 9.92005 5.3924 2.16675
2 7.53955 0.385914 0.276775
1 7.81707 18.722 18.1225
1 8.19186 1.06933 0.430618
2 1.97679 8.32095 18.2358
1 1.61372 9.09536 0.000713517
1 2.21642 7.7059 18.929
2 10.1878 10.1899 4.07972
1 9.34913 9.97812 3.66978
1 9.9623 10.7877 4.79248
2 0.668022 9.60221 2.28905
1 0.928375 10.3476 2.83016
1 -0.148919 9.88009 1.87478
2 3.5905 9.50234 5.25947
1 2.99132 10.1567 4.90018
1 3.80266 9.82624 6.13486
2 2.72448 10.1856 8.54556
1 2.25965 9.41259 8.22517
1 2.6393 10.8265 7.83975
2 10.996 6.78625 16.3467
1 10.5754 6.55823 15.5176
1 10.2903 6.74789 16.9923
2 13.3021 4.57199 17.2842
1 13.7463 5.06674 16.5957
1 13.1286 5.21729 17.9696
2 8.17307 11.3458 15.1697
1 8.59324 12.1629 14.9011
1 7.73683 11.56 15.9943
2 7.32001 11.4494 17.9328
1 6.40128 11.2139 17.8036
1 7.28474 11.9252 0.0630505
2 13.8761 2.87358 14.4082
1 13.8673 3.82531 14.51
1 14.4298 2.71915 13.6429
2 17.3304 12.3074 18.1755
1 18.2399 12.4378 18.4442
1 16.863 13.0603 18.5372
2 2.42715 6.18271 1.21898
1 2.8016 5.34308 1.48554
1 2.8533 6.82612 1.78523
2 5.52549 14.3491 -0.0629302
1 4.95001 14.6642 17.9816
1 6.15336 13.7619 18.1541
2 6.40613 5.51559 12.6907
1 6.0434 5.75821 11.8388
1 6.80038 6.32236 13.0223
2 10.436 13.5586 17.4119
1 10.0156 13.3024 18.2328
1 10.9224 12.7809 17.1384
2 16.942 17.6211 7.95205
1 16.2808 17.1403 7.45425
1 16.5846 17.6727 8.83851
2 1.36221 2.23781 4.19799
1 0.495823 2.5118 3.89711
1 1.59987 2.8826 4.86432
2 7.03701 4.69202 3.3941
1 6.40672 4.20435 2.86388
1 7.72402 4.94541 2.77761
2 2.09544 15.4596 0.768629
1 1.20934 15.8009 0.647784
1 2.41448 15.8949 1.55921
2 2.5299 0.371345 14.6347
1 2.02515 18.2666 14.519
1 2.56972 0.495422 15.583
2 7.1562 16.2096 15.0645
1 7.07419 15.8893 14.1663
1 6.28129 16.1035 15.438
2 5.02313 11.9677 11.8073
1 5.29613 12.1327 10.9048
1 5.48232 12.6314 12.322
2 4.81593 15.9802 16.2302
1 4.13786 15.3215 16.0798
1 4.43593 16.5719 16.8796
2 6.00314 7.04515 3.79745
1 6.35152 6.1598 3.69252
1 5.8617 7.1373 4.73964
2 9.21707 18.0818 4.47415
1 9.62862 18.1334 3.61148
1 8.4681 18.6753 4.4186
2 10.8193 16.6902 9.40855
1 10.0294 16.2005 9.17927
1 10.5326 17.3059 10.083
2 16.4374 7.04935 18.5787
1 16.7457 7.90584 0.116553
1 17.1164 6.42722 18.8398
2 12.8454 5.22889 5.93761
1 12.1612 4.99401 5.31068
1 13.5507 5.58847 5.39962
2 11.6709 0.758737 14.4548
1 12.1082 1.60266 14.5679
1 11.9564 0.23797 15.2055
2 16.793 5.90752 5.18095
1 17.4354 6.59257 4.99596
1 16.0843 6.06859 4.55805
2 2.38953 6.52061 11.5891
1 1.83319 7.02414 10.9948
1 3.05883 7.14205 11.8756
2 11.1781 2.86988 17.5343
1 10.4711 2.76643 16.8975
1 11.7551 3.52849 17.1475
2 14.5766 9.7546 1.30647
1 13.6543 9.684 1.06025
1 14.6296 9.32989 2.16265
2 16.6664 6.28758 12.4872
1 17.4745 5.99932 12.9117
1 16.5986 7.2169 12.7063
2 14.3538 2.26173 4.5692
1 13.6403 1.81965 5.02932
1 13.9443 2.62504 3.784
2 3.48573 8.7492 12.7918
1 4.1438 9.10775 13.3873
1 3.1081 9.51631 12.3615
2 16.82 10.8612 8.55284
1 17.2452 10.9929 9.40023
1 17.1049 11.6057 8.02305
2 10.8196 4.99286 3.75557
1 10.601 5.83793 4.1484
1 10.1528 4.39307 4.09007
2 13.1943 10.0518 5.86905
1 12.908 9.22985 6.26729
1 13.6402 10.5185 6.57593
2 18.4852 10.1945 6.40262
1 17.8384 10.3463 7.09169
1 0.146114 11.0613 6.21727
2 13.3737 16.0092 9.68335
1 13.3337 15.09 9.94731
1 12.4579 16.275 9.60009
2 13.8439 6.41878 0.731658
1 14.7156 6.68762 0.441729
1 13.2905 7.18243 0.568049
2 7.26129 15.0598 6.28396
1 7.62492 14.1859 6.14162
1 7.3913 15.5125 5.45064
2 5.13938 13.2027 6.46695
1 5.19687 12.5931 5.7312
1 5.83757 13.8378 6.30753
2 12.0077 16.3489 4.32554
1 12.1234 17.0922 3.73365
1 11.8165 16.7462 5.17517
2 9.42177 9.60365 18.0282
1 8.55126 10.001 18.052
1 9.91707 10.1473 17.4156
2 15.1716 14.7221 7.80306
1 14.9227 14.9493 6.90713
1 14.5507 15.1999 8.35305
2 7.24962 12.052 1.85319
1 8.16396 12.3348 1.86893
1 6.89243 12.348 2.69048
2 9.99378 10.7499 12.8392
1 10.8738 10.6935 13.2116
1 9.43413 10.3082 13.4779
2 4.27985 12.6445 1.54967
1 4.80052 13.2806 1.05927
1 4.43527 11.8121 1.10338
2 16.2979 12.2598 2.83682
1 15.3953 12.157 3.13854
1 16.478 11.4604 2.34211
2 18.3456 13.4001 4.51311
1 -0.270301 14.3489 4.60723
1 17.5964 13.2826 3.92904
2 7.05801 9.40452 6.55025
1 7.01987 10.2674 6.1377
1 7.14586 9.58924 7.48533
2 2.50366 3.56977 6.58324
1 2.59935 3.15623 7.44118
1 2.76852 4.47875 6.7241
2 5.23094 11.4374 4.21508
1 4.97509 10.5408 4.43174
1 4.67355 11.6734 3.47359
2 13.5372 11.9454 3.85955
1 13.0162 11.371 4.42073
1 13.6693 12.7363 4.38229
2 7.92464 15.6402 3.73403
1 7.29603 15.9519 3.08294
1 8.60892 16.3094 3.74655
2 13.8722 0.385502 7.62247
1 14.2958 0.0956964 8.43041
1 13.8141 1.33693 7.70987
2 10.7609 2.82973 10.2947
1 10.8919 2.2669 11.0578
1 10.9686 2.27092 9.54582
2 0.385743 4.72712 8.74938
1 1.21498 4.27135 8.60491
1 18.4418 4.21338 8.26231
2 3.27494 4.74352 9.64485
1 3.02905 5.27565 8.88814
1 2.96294 5.24182 10.4002
2 4.258 1.81561 10.7567
1 3.9746 0.979286 11.1261
1 4.56862 2.31781 11.51
2 8.31304 15.6768 9.0008
1 7.82052 15.3692 8.23983
1 7.82086 16.4354 9.31461
2 6.20415 17.258 9.47832
1 5.96493 17.8979 10.1488
1 5.69072 16.4798 9.69524
2 15.3475 4.67556 8.92063
1 15.7484 4.63464 8.0524
1 16.0491 4.42381 9.52108
2 9.45483 1.87514 7.52948
1 9.03725 1.01654 7.59776
1 9.20381 2.19588 6.66325
2 8.86028 6.97883 18.1703
1 8.94941 7.93177 18.1562
1 9.00463 6.73337 0.375358
2 5.62991 1.19638 8.21994
1 5.15898 1.43293 9.01901
1 6.28552 0.560775 8.507
2 8.87734 3.34104 5.24051
1 8.5288 4.14191 5.63212
1 8.26507 3.13281 4.53483
2 12.1418 7.60047 7.12989
1 11.4713 7.71962 7.80245
1 12.1397 6.65978 6.95287
2 -0.0771341 7.5403 9.60959
1 -0.163104 6.59734 9.46939
1 17.7264 7.87228 9.56506
2 0.763015 16.8729 14.0785
1 1.00797 16.6151 13.1898
1 0.183592 17.6254 13.959
2 7.45082 10.0996 9.15144
1 6.93567 9.50607 9.69789
1 7.06924 10.9631 9.30925
2 12.3417 8.58663 18.5159
1 11.9148 9.24115 0.401423
1 11.8113 8.63899 17.7208
2 10.4927 7.6465 4.9238
1 10.426 8.5558 4.6323
1 11.0237 7.68774 5.71911
2 13.8276 5.59084 13.4813
1 14.6794 6.02635 13.5111
1 13.6462 5.48184 12.5478
2 13.554 3.1497 7.61196
1 13.3102 3.61654 6.81267
1 14.1363 3.75277 8.074
2 2.2947 15.7559 7.64442
1 1.45923 15.8317 8.10538
1 2.54015 16.6588 7.44255
2 6.9124 4.38122 8.08605
1 7.64914 4.73136 7.5852
1 6.54527 3.697 7.52633
2 4.58941 14.7382 9.35343
1 4.04755 14.9928 8.60657
1 4.63423 13.7833 9.30296
2 5.10005 10.2528 0.633263
1 5.89774 10.3785 1.1472
1 4.52454 9.74368 1.20403
2 15.5497 17.3044 10.2126
1 15.6475 17.3489 11.1637
1 14.7801 16.7519 10.0761
2 9.90819 12.4708 1.57558
1 10.0267 12.9741 2.38107
1 10.5908 11.8005 1.60881
2 18.7246 15.6157 9.18079
1 17.9979 16.1536 8.86649
1 18.3683 15.1491 9.93678
2 1.70009 18.2885 4.72051
1 2.08457 18.3012 5.59701
1 1.73149 0.500253 4.43151
2 3.48764 4.10347 15.5537
1 3.58568 3.85241 14.6352
1 2.64402 3.73413 15.8147
2 10.1651 14.2949 4.12714
1 10.8014 15.01 4.12385
1 9.33121 14.7146 3.91576
2 11.3695 11.1762 16.7894
1 12.3176 11.2351 16.9076
1 11.2539 11.016 15.8528
2 0.0578071 16.0665 5.64778
1 0.615446 16.8073 5.41011
1 0.0108563 16.0983 6.6033
2 17.1728 3.96199 7.02388
1 17.3809 4.61559 6.35624
1 16.8187 3.22098 6.53216
2 17.6165 0.349028 14.0506
1 18.2075 1.03153 13.7326
1 17.0504 0.795898 14.68
2 6.69636 0.882366 4.38716
1 6.36567 1.67051 4.81811
1 6.20674 0.834433 3.56606
2 11.7845 17.4245 6.82201
1 11.2568 17.1281 7.56354
1 12.5399 17.8553 7.22204
2 8.99049 17.5279 11.4958
1 9.65911 18.1144 11.8497
1 8.18242 18.0402 11.5244
2 15.6253 15.6729 16.0235
1 16.5066 15.3264 16.1627
1 15.6689 16.5746 16.3416
2 17.046 3.85477 10.9083
1 17.8344 3.99451 10.3838
1 17.0099 4.61126 11.4936
2 6.18872 4.3117 16.3731
1 6.3521 5.04025 16.9721
1 5.23574 4.22328 16.3571
2 4.50154 15.2679 11.9135
1 3.8547 14.6788 12.3019
1 4.42052 15.1251 10.9705
2 8.77807 5.17036 11.232
1 8.68306 4.23976 11.029
1 7.99628 5.38616 11.7404
2 8.65015 18.0031 7.36055
1 8.8226 17.8834 6.42665
1 8.64898 17.1159 7.72001
2 16.0052 16.8543 13.131
1 16.3969 17.6538 13.4827
1 15.9435 16.2662 13.8837
2 15.3084 -0.0473597 1.08587
1 15.1095 0.772813 0.634189
1 15.8194 18.1482 0.453106
2 10.0056 12.6004 9.00349
1 9.1647 12.7331 9.44105
1 10.4449 11.9295 9.52617
2 6.96238 0.442948 11.987
1 6.92647 1.30098 11.5642
1 6.34232 0.507169 12.7134
2 8.32596 5.93071 6.24092
1 8.74649 6.57893 5.67595
1 8.82658 5.96211 7.05617
2 14.9304 2.46357 11.9213
1 15.7532 2.91152 11.7248
1 14.2553 3.02119 11.5347
2 0.296104 5.06277 13.0648
1 1.07422 5.59577 12.9014
1 0.565956 4.17081 12.8461
2 7.68487 9.51842 3.13521
1 7.28523 10.3227 3.46644
1 7.02958 8.84002 3.29826
2 9.76098 5.6446 14.3181
1 8.92279 6.06618 14.1286
1 10.026 5.25251 13.4861
2 5.62427 5.83169 10.0147
1 6.09499 5.39504 9.30473
1 4.74595 5.45202 9.98938
2 12.3884 10.7528 14.0248
1 12.6593 9.84394 14.1546
1 13.2068 11.2298 13.8871
2 0.20319 12.7151 13.1821
1 18.4154 13.4984 12.9282
1 -0.190318 12.4457 14.0121
2 17.1253 18.3662 2.94646
1 16.3055 -0.223093 2.46495
1 17.1519 0.408796 3.54953
2 10.0395 8.65612 8.89005
1 9.23415 9.15327 8.74675
1 10.4585 9.08743 9.63479
2 3.01128 13.3435 13.1624
1 2.1132 13.0478 13.0133
1 3.55558 12.6847 12.7312
2 14.9061 8.70418 3.72725
1 15.8087 8.45165 3.92143
1 14.6352 9.22628 4.48242
2 10.7702 16.4455 17.4107
1 9.96992 16.869 17.1
1 10.5104 15.5412 17.5867
2 7.79248 2.5332 10.2761
1 8.50799 2.37462 9.66039
1 7.23566 3.17588 9.83664
2 12.5208 13.399 10.1498
1 12.3791 12.8482 10.9197
1 11.71 13.3216 9.6469
2 2.07126 10.6234 11.2327
1 2.07403 10.4842 10.2857
1 1.19572 10.9601 11.4232
2 2.99022 14.646 5.15302
1 3.79804 14.2008 5.40885
1 2.61438 14.9539 5.97774
2 2.99481 18.4813 7.13241
1 3.951 18.4893 7.08917
1 2.78507 0.308106 7.90344
2 6.46293 13.9752 13.2252
1 5.9605 14.6851 12.8253
1 7.05916 13.6848 12.535
2 12.5347 18.2856 1.95678
1 13.4899 18.3325 1.99736
1 12.2367 0.389973 2.38106
2 18.3482 15.1293 16.0164
1 0.328081 14.7201 16.5514
1 0.128957 15.6027 15.3377
2 14.5896 6.13578 3.41426
1 14.2004 5.98865 2.5522
1 14.4787 7.07357 3.57073
2 1.18461 12.7367 0.222807
1 1.7131 13.5281 0.325922
1 1.67739 12.2376 18.239
2 2.81858 1.4325 1.96245
1 2.57244 1.93173 2.74118
1 3.74828 1.24023 2.08458
2 17.3187 14.7174 11.6766
1 16.9246 15.5188 12.0212
1 16.5759 14.1973 11.3701
2 11.7267 10.4576 1.67304
1 11.2941 10.2409 2.49894
1 12.3941 11.1003 1.91315
2 14.9294 13.9473 13.8519
1 14.9329 14.2465 14.7612
1 14.0049 13.9441 13.6038
2 5.50856 17.4758 5.9795
1 5.74779 18.0413 5.24518
1 6.3457 17.1822 6.33899
2 5.22903 2.78539 6.02215
1 5.29716 2.1017 6.68861
1 4.3104 3.05329 6.04622
2 3.86434 18.035 11.9728
1 3.96011 17.0848 12.0366
1 4.02748 18.3529 12.8608
2 8.62424 18.0988 16.4242
1 8.84191 0.138685 15.8576
1 8.05494 17.546 15.8888
2 -0.015001 1.52145 10.7589
1 0.128191 0.576954 10.6984
1 17.7423 1.61297 10.8954
2 18.3014 16.9171 0.701108
1 18.017 17.2464 1.55371
1 17.7107 16.1868 0.51671
2 17.7444 10.8414 11.1713
1 17.6131 11.4014 11.9364
1 17.1418 10.1095 11.3035
2 5.86955 6.99659 6.49083
1 6.67968 6.48696 6.47701
1 6.13739 7.86495 6.79158
2 0.954906 2.33642 13.2883
1 1.6801 1.80112 13.6104
1 0.917734 2.15056 12.35
2 11.1308 0.397169 11.9158
1 11.175 0.424655 12.8715
1 12.0354 0.253948 11.6377
2 14.0347 11.3056 8.27381
1 14.9503 11.2449 8.54617
1 13.8473 12.2443 8.26955
2 17.5374 2.9384 0.548275
1 17.5517 3.03464 1.50052
1 18.0654 2.15834 0.377958
2 11.4422 10.5889 10.4833
1 12.2634 10.0976 10.5067
1 11.0153 10.3826 11.3148
2 7.51045 7.93935 13.8891
1 7.0947 8.75697 13.6154
1 7.59562 8.01965 14.8391
2 13.1072 3.92427 10.8247
1 13.0121 4.49864 10.0649
1 12.2386 3.54096 10.946
2 15.2785 9.62948 16.768
1 15.5298 8.74117 16.5151
1 14.9102 9.53379 17.6463
2 14.7135 2.56972 0.514904
1 15.6664 2.65283 0.478452
1 14.4419 3.15029 18.5238
2 5.66929 8.6113 10.7087
1 5.19299 8.71558 11.5324
1 5.82685 7.66965 10.6402
2 13.7092 9.32038 10.0804
1 13.6371 9.97722 9.38787
1 13.8498 8.49569 9.61527
2 0.805357 6.60794 15.8076
1 0.858291 5.65672 15.7147
1 0.911906 6.76379 16.746
2 5.19061 11.9763 8.89819
1 4.68922 11.1631 8.83896
1 5.21305 12.3103 8.00142
2 9.55146 14.971 12.5088
1 9.33331 15.8629 12.2382
1 9.40549 14.9648 13.4548
2 1.91395 11.5968 3.70719
1 2.21761 12.1365 2.97728
1 1.20085 12.1015 4.09838
2 14.144 7.02662 8.85453
1 13.565 7.08413 8.09442
1 14.5937 6.18807 8.75074
2 14.0605 12.7331 16.8781
1 14.9103 12.4132 17.181
1 13.8714 13.4831 17.4421
2 5.78984 16.4703 2.10024
1 4.86995 16.4272 2.36134
1 5.8527 15.8852 1.34531