LAMMPS data file via write_data, version 23 Jun 2022, timestep = 20000

648 atoms
2 atom types
432 bonds
1 bond types
216 angles
1 angle types

-0.05013120983981878 18.65013120983987 xlo xhi
-0.05013120983981878 18.65013120983987 ylo yhi
-0.05013120983981878 18.65013120983987 zlo zhi
0 0.9350131209839851 0 xy xz yz

Masses

1 1.00794
2 15.9994

Atoms # full

91 31 2 -1.1128 5.545516779582911 5.616318690658196 3.233960217996463 0 1 0
313 105 2 -1.1128 6.61992204397916 2.2831705647506717 3.828492122356839 0 1 0
109 37 2 -1.1128 5.457480419177733 8.338708230647837 4.225307558809792 0 0 0
612 204 1 0.5564 1.0484151838537639 6.289859939438601 2.5545496252830198 1 0 1
93 31 1 0.5564 6.396360324050658 5.21416358723737 3.0591220821762564 0 1 0
92 31 1 0.5564 5.108958503954344 5.634162998572694 2.3822969674463814 0 1 0
567 189 1 0.5564 0.12630790877203124 0.8890330463384968 0.6039575515269744 0 0 1
110 37 1 0.5564 5.406048311124848 7.465889617778724 3.8357254127147486 0 0 0
526 176 2 -1.1128 4.205045181277177 5.903971439178785 0.9374677395897718 0 1 1
314 105 1 0.5564 5.708577175337025 2.11212283241962 4.066031648811884 0 1 0
2 1 1 0.5564 3.956125453961409 9.083197559459864 3.7415289785942694 0 0 0
75 25 1 0.5564 1.9890809950095205 7.98315183784651 3.935068260970156 0 0 0
240 80 1 0.5564 8.044859817960766 5.35298545027811 0.05601479497866178 0 0 0
114 38 1 0.5564 7.570405691241451 0.5312023913078833 3.544632140212729 0 0 0
315 105 1 0.5564 6.566807542642394 2.7546770444631434 2.997172488821246 0 1 0
562 188 2 -1.1128 2.2796250559099955 4.247977970341537 0.03914029097522226 0 0 1
35 12 1 0.5564 8.354668139690881 3.543040129810592 1.256428631137508 0 0 0
36 12 1 0.5564 8.534713244909977 4.495650862394798 2.41918903451287 0 0 0
608 203 1 0.5564 4.514611452031879 9.281695811760844 0.38243248207608727 1 0 1
422 141 1 0.5564 0.8477203699018988 0.7845230819570577 2.439469547417266 0 1 1
421 141 2 -1.1128 0.7756326812623149 0.006236486566400523 1.8869252657277937 0 1 1
34 12 2 -1.1128 7.901789009012734 4.223345218964524 1.7547431002485587 0 0 0
42 14 1 0.5564 0.08237545327237583 7.157820426813803 0.6388741239172695 0 0 0
73 25 2 -1.1128 1.3282254021979893 7.335563219339739 4.180283882170986 0 0 0
610 204 2 -1.1128 0.7662518561069556 5.980891754716732 1.6936463968857205 1 0 1
112 38 2 -1.1128 8.375977736487078 0.2590906688662228 3.105040583169115 0 0 0
152 51 1 0.5564 9.258502152844395 5.636620228910388 4.285214192852075 0 0 0
611 204 1 0.5564 1.4037102873983769 5.306123017229016 1.4600532645639033 1 0 1
527 176 1 0.5564 3.4276902238775633 5.4228458034914695 0.6537966989098469 0 1 1
528 176 1 0.5564 4.245387926284263 6.660886727599107 0.3529307009087282 0 1 1
9 3 1 0.5564 5.530974986242638 -0.013637880972524836 0.1039283853935116 0 0 0
88 30 2 -1.1128 0.6345777043997196 1.7353605683841151 4.152079440592259 1 1 0
151 51 2 -1.1128 9.373611842839672 4.774881401262773 3.8847297411879835 0 0 0
89 30 1 0.5564 0.19902253447368212 2.412382850540667 3.6342335606982052 1 1 0
580 194 2 -1.1128 9.084692614557865 2.3041809365762504 -0.04438142931619664 0 0 1
352 118 2 -1.1128 7.615205963207421 6.256545881463019 6.276021605892097 0 0 0
403 135 2 -1.1128 2.729273958056047 0.10320991717815425 6.961960744171861 0 1 0
245 82 1 0.5564 7.361673275432949 4.3810057726252545 5.977648356271151 0 0 0
236 79 1 0.5564 9.053506081339174 0.7765976883075504 6.623630403098977 0 0 0
274 92 2 -1.1128 6.9646910396108845 3.2733378999212484 8.974864353952642 0 0 0
405 135 1 0.5564 2.3612493055622368 0.6735959911082098 7.636830672658219 0 1 0
353 118 1 0.5564 8.307756842208335 6.6815805918670215 5.770105976487972 0 0 0
250 84 2 -1.1128 0.5033402638734429 7.315544703738198 8.237870997327157 1 0 0
354 118 1 0.5564 7.872520050214016 6.3837321323513345 7.1891727214528 0 0 0
438 146 1 0.5564 4.080029799743845 2.257239257989133 5.795764662762195 0 0 0
436 146 2 -1.1128 4.671800300308503 1.519689773804525 5.647237647754028 0 0 0
437 146 1 0.5564 5.281601886436707 1.5490407847215035 6.384470577387612 0 0 0
221 74 1 0.5564 3.4189610056013744 5.015515138951059 9.112971405479557 0 0 0
631 211 2 -1.1128 3.141500826169418 5.871043418990506 7.47946808977569 0 1 1
454 152 2 -1.1128 5.2094240011021204 7.618580629953494 6.929910986537796 0 0 1
546 182 1 0.5564 1.3452024626991947 8.95971491132266 8.07093513861852 0 0 1
200 67 1 0.5564 2.553770941246511 2.9298234778257983 7.52557843341311 0 1 0
538 180 2 -1.1128 1.9133272437439073 1.9735620708128758 8.78203802725637 1 1 0
276 92 1 0.5564 6.714398703155903 2.385731076487675 8.718466786355432 0 0 0
275 92 1 0.5564 7.259328870545592 3.6838865727138366 8.161925131667275 0 0 0
244 82 2 -1.1128 7.559591541470848 3.4542635735046634 6.112589433365707 0 0 0
633 211 1 0.5564 2.531337232107637 6.579489435793749 7.6844960512646985 0 1 1
111 37 1 0.5564 5.412724725142444 8.183421520794097 5.168766517102142 0 0 0
632 211 1 0.5564 3.968825432422028 6.313947129006987 7.2907827256003035 0 1 1
455 152 1 0.5564 6.056830711704684 7.267442356317367 6.656349952628076 0 0 1
456 152 1 0.5564 5.384713999271256 8.537347056337003 7.1333157770826805 0 0 1
199 67 2 -1.1128 2.9105340933408423 3.2316647019793345 6.690207995603356 0 1 0
619 207 2 -1.1128 8.38922671439758 6.391121652280689 8.829647295042427 0 0 0
263 88 1 0.5564 9.482086367160678 8.527670253214321 4.963500157348258 0 0 0
201 67 1 0.5564 3.1078338273814374 4.1572209351248635 6.833910167003881 0 1 0
241 81 2 -1.1128 5.932257819390893 0.7949089588866504 7.987853448976164 0 0 0
621 207 1 0.5564 8.775397864986891 7.266956967109183 8.833669392998553 0 0 0
235 79 2 -1.1128 9.358279929465125 1.5920016346424415 7.021702184232498 0 0 0
90 30 1 0.5564 1.1731632224479875 2.2206323114216215 4.7771144968669415 1 1 0
242 81 1 0.5564 5.375498131348747 0.8807458091867341 8.761728460063694 0 0 0
237 79 1 0.5564 8.785505574412355 2.266231432088701 6.656222286905404 0 0 0
246 82 1 0.5564 7.13913277049506 3.0094387200022794 5.376670205539202 0 0 0
404 135 1 0.5564 3.5194150992712503 0.5570815387705371 6.6688577682737975 0 1 0
251 84 1 0.5564 0.4357405396759447 6.441830753298972 8.62295027723282 1 0 0
243 81 1 0.5564 6.553696846678721 0.10315377585534263 8.214833940203421 0 0 0
539 180 1 0.5564 1.0947132016344825 1.8625653027252738 9.265548765418114 1 1 0
620 207 1 0.5564 9.103152594571473 5.812824083317821 9.098187056791552 0 0 0
74 25 1 0.5564 1.664989390029118 6.94196782787547 4.985209050139341 0 0 0
222 74 1 0.5564 3.2736522030863053 5.647778181880797 10.480825194852837 0 0 0
220 74 2 -1.1128 3.2664546698324894 4.8016076556059755 10.033415454107255 0 0 0
130 44 2 -1.1128 2.6114914982901594 7.167270525405652 11.120026258999841 0 0 0
369 123 1 0.5564 6.419470304055729 4.644463796776884 10.039066810333956 0 0 0
367 123 2 -1.1128 6.468433584076681 5.5650624441926215 10.296617910158709 0 0 0
223 75 2 -1.1128 4.013489857653526 1.4248980001129794 10.384296456379639 0 0 0
392 131 1 0.5564 8.805502352547649 1.5804495043609819 10.98818416299773 0 0 0
225 75 1 0.5564 3.9598302473888918 2.129724413881064 11.029720513095796 0 0 0
224 75 1 0.5564 3.5046498208954238 0.7100235018316093 10.76674658812352 0 0 0
485 162 1 0.5564 5.587293018600681 8.376236719820055 11.079526650977705 1 0 0
486 162 1 0.5564 6.3937843575920645 7.095063227113398 11.087361604887224 1 0 0
484 162 2 -1.1128 6.425790800936821 8.011344504876657 11.362381690935845 1 0 0
79 27 2 -1.1128 7.90191938390085 4.278495113058951 12.60079254401358 0 1 -1
551 184 1 0.5564 4.6111369356322065 2.7059168264062787 13.394418908848499 0 0 0
550 184 2 -1.1128 4.230526388638666 3.2256996857888254 12.686468889318764 0 0 0
393 131 1 0.5564 8.11652355059654 2.443905427912321 12.023388154109838 0 0 0
257 86 1 0.5564 7.235573639828642 9.207090612752248 10.082785469348009 0 0 0
80 27 1 0.5564 7.869414808244161 4.453269899439079 11.660245327140142 0 1 -1
350 117 1 0.5564 7.2114688839431835 0.12318093183230977 12.06648104625154 0 0 0
472 158 2 -1.1128 7.777340164852968 7.063422317015264 13.43268433250465 0 0 0
552 184 1 0.5564 4.922694265716711 3.8393776021204182 12.440430487543393 0 0 0
368 123 1 0.5564 7.258627585532533 5.89272092403557 9.867123789513132 0 0 0
391 131 2 -1.1128 8.426151355483816 1.551851200975935 11.866538766335575 0 0 0
131 44 1 0.5564 2.0754995755197574 7.42720642744093 10.370774747616025 0 0 0
297 99 1 0.5564 2.664882103945486 5.9107018969679075 13.866275653907456 0 1 0
132 44 1 0.5564 2.9515335630032307 7.991102486363033 11.46917397529024 0 0 0
473 158 1 0.5564 7.4172800275759805 7.64498665465859 12.76307887969274 0 0 0
218 73 1 0.5564 1.284800217084612 4.66098143596392 9.668041231298472 0 0 0
365 122 1 0.5564 9.622669220956928 6.49070026281437 13.208608218361697 0 0 0
296 99 1 0.5564 3.458930930451879 4.687050525261039 13.461233697420958 0 1 0
458 153 1 0.5564 1.1146550224088076 3.1778168155941646 13.680026194430107 0 0 0
359 120 1 0.5564 1.5778519727843832 6.518942298061304 12.5526055121507 1 0 0
81 27 1 0.5564 8.01474231931735 5.140519477962131 13.001313231506318 0 1 -1
145 49 2 -1.1128 3.9503308257389946 9.210934905792039 12.001743441167605 0 0 0
360 120 1 0.5564 0.7217828977970643 5.541470798273253 13.329516313802845 1 0 0
540 180 1 0.5564 2.595107987247267 1.9373877445796595 9.452931677726552 1 1 0
587 196 1 0.5564 9.254261268004502 0.9968954831021053 13.58106137762941 0 0 0
358 120 2 -1.1128 0.9529620485196868 6.468788879091474 13.275951251003224 1 0 0
441 147 1 0.5564 3.524038967766789 -0.038243152997459076 12.949234333144961 0 0 0
29 10 1 0.5564 7.3376013599254515 3.217205519841462 13.985614316375642 0 0 -1
5 2 1 0.5564 4.280245779525055 1.019915921884544 17.13600438982252 0 0 -1
585 195 1 0.5564 5.520340426483287 3.1368880297272685 17.1423121767129 0 0 0
328 110 2 -1.1128 5.581186328222745 4.844610968193683 15.814086447924014 0 0 0
474 158 1 0.5564 7.185985671076211 7.161539061928743 14.178944882103604 0 0 0
97 33 2 -1.1128 1.8204536976870163 2.0085069240672 14.97839464097008 0 1 -1
584 195 1 0.5564 5.727192950714299 1.8797593607000038 17.960074202469542 0 0 0
583 195 2 -1.1128 5.052614631904978 2.4990527582272937 17.681413831269467 0 0 0
329 110 1 0.5564 6.117155894760778 5.575219418878041 16.1225986255782 0 0 0
4 2 2 -1.1128 3.783796357808296 0.3459605042388488 16.671726551943692 0 0 -1
548 183 1 0.5564 7.693479556552369 6.646294076327298 16.908425678585527 0 0 0
239 80 1 0.5564 9.57202749239169 6.45032313730751 17.89786200306316 0 0 -1
330 110 1 0.5564 4.914995331284945 5.2525094312866685 15.26087740890003 0 0 0
492 164 1 0.5564 2.1716615796366443 7.648750669745795 17.641901396733633 0 0 0
547 183 2 -1.1128 6.85239062834299 6.986504678683499 16.603371571695856 0 0 0
549 183 1 0.5564 6.491425507727804 7.448026673065267 17.360295262878807 0 0 0
99 33 1 0.5564 2.3637528387821884 1.5598907502439483 15.62631547969596 0 1 -1
579 193 1 0.5564 3.841738946523723 9.11937912486933 16.04725779656163 0 0 0
566 189 1 0.5564 1.1648745063083177 1.854579879923896 18.142818913406963 0 0 0
564 188 1 0.5564 3.840085589951583 3.558145743690683 18.518167728945375 0 0 0
490 164 2 -1.1128 2.5492365978637244 7.650005298338888 16.762317760637238 0 0 0
38 13 1 0.5564 7.928448898537707 0.11359744800781016 17.236694544360287 0 0 -1
586 196 2 -1.1128 9.843352099444317 0.4119022143748969 14.057492602240501 0 0 0
617 206 1 0.5564 0.7655807178758597 7.9829205534337095 14.11822354746269 0 0 0
26 9 1 0.5564 2.249714947395313 4.56236374333628 15.704302506982426 0 0 -1
563 188 1 0.5564 2.710374887890664 4.381257129369154 17.93667261815823 0 0 0
39 13 1 0.5564 8.14927773284921 1.480172556166076 17.849558549885675 0 0 -1
57 19 1 0.5564 9.702448830464375 4.8268737051001995 16.488299414042565 0 0 -1
30 10 1 0.5564 6.7693456700879295 3.2287035796712926 15.38877092122451 0 0 -1
238 80 2 -1.1128 9.149460133143698 5.593053128558827 17.845356761228 0 0 -1
12 4 1 0.5564 5.839480776206507 1.2110423817544478 14.49427316306011 0 0 -1
609 203 1 0.5564 5.253991183286549 8.689724273601595 17.703105972788048 1 0 0
607 203 2 -1.1128 5.698315944250686 8.535814927097087 18.536844099826173 1 0 0
28 10 2 -1.1128 7.209088260946045 2.6621782345380742 14.754809309056082 0 0 -1
25 9 2 -1.1128 1.6548338063905725 4.8557411583174614 16.394431454269295 0 0 -1
37 13 2 -1.1128 7.459255581418801 0.876124628382244 17.575282460832423 0 0 -1
295 99 2 -1.1128 3.4509810312844316 5.4112059890696775 14.08714703280864 0 1 0
491 164 1 0.5564 2.397942287293375 6.763344207134341 16.434943388170304 0 0 0
618 206 1 0.5564 1.5337325992027688 8.291687753455438 15.385701631497 0 0 0
176 59 1 0.5564 9.948758548436466 8.624639906537201 17.7863289395252 0 0 -1
98 33 1 0.5564 0.947891882069145 1.632755654062046 15.095350649273424 0 1 -1
56 19 1 0.5564 9.774367715760171 4.7469413901414965 14.978222034850319 0 0 -1
11 4 1 0.5564 4.712403032179821 0.28010321711869607 14.88790146228273 0 0 -1
581 194 1 0.5564 10.162142260188647 2.1598108940448992 17.72041267564942 0 0 0
10 4 2 -1.1128 5.171138643881742 0.6333851468398874 14.125677506042688 0 0 -1
27 9 1 0.5564 0.7939196803283401 4.876128737021989 15.976528279528644 0 0 -1
616 206 2 -1.1128 0.8150227210348978 8.610170533125814 14.839572832978602 0 0 0
76 26 2 -1.1128 6.61740841709686 13.85598362062809 0.36966993469140325 0 0 0
282 94 1 0.5564 3.5252333731979144 10.524487324960653 1.8645888568770905 0 0 0
181 61 2 -1.1128 7.793287531219941 11.525206434539465 1.4588976848923119 0 0 0
204 68 1 0.5564 4.276136170677803 13.118633349779554 3.3126423768442748 0 0 0
188 63 1 0.5564 4.790214735439373 14.125784319699335 1.2351733717815303 0 0 0
363 121 1 0.5564 6.281441530087682 9.978157261041408 4.039292374984559 0 0 0
1 1 2 -1.1128 3.051129720437924 9.393328196696789 3.7093800432299746 0 0 0
50 17 1 0.5564 1.3719079870092554 11.694101234627162 4.2564579996380685 1 0 0
183 61 1 0.5564 7.401454566517277 11.251806515226178 2.288325954361114 0 0 0
280 94 2 -1.1128 3.944274976388797 10.859486799691812 1.0718648687982344 0 0 0
361 121 2 -1.1128 6.664070137727539 10.826984617401779 3.8172128939427914 0 0 0
3 1 1 0.5564 3.024705589572644 10.121296715560105 4.330343360154518 0 0 0
187 63 2 -1.1128 3.9297451006366955 13.848511842185387 1.5497267573321973 0 0 0
523 175 2 -1.1128 1.6722141260934384 16.793798679351987 3.6261165003228872 0 0 1
525 175 1 0.5564 0.9976187031911556 17.10021392375999 4.232138408045445 0 0 1
78 26 1 0.5564 7.164050377155899 13.124024505608642 0.6554150404596842 0 0 0
509 170 1 0.5564 6.120575153000319 16.06425440680342 2.621255349162656 0 0 1
182 61 1 0.5564 8.637103343242694 11.903938868899415 1.7054102760789724 0 0 0
8 3 1 0.5564 5.417954375323716 17.762272657067882 1.2975343220376456 0 -1 0
434 145 1 0.5564 5.186288249295455 18.244371002834818 4.4925172592176 0 -1 1
209 70 1 0.5564 8.313905513101956 16.021685096237764 2.6631247703391754 0 0 0
508 170 2 -1.1128 6.557240679947611 16.300225683469787 1.8027978875182178 0 0 1
208 70 2 -1.1128 8.970241322944421 16.219958844847238 3.3310638927329164 0 0 0
510 170 1 0.5564 6.769182587101396 15.46137634811974 1.3933540200656216 0 0 1
419 140 1 0.5564 0.8566663876033491 13.43361146795039 0.46326363802218284 0 0 1
500 167 1 0.5564 0.10902184325430425 11.649340625248577 2.04406978003642 1 0 1
96 32 1 0.5564 1.3617526369812203 15.310686284246767 2.160187810993488 0 0 0
418 140 2 -1.1128 0.7594423561981241 12.489192664388012 0.3413930032185023 0 0 1
362 121 1 0.5564 5.992017109344989 11.463994624567707 4.059689310466806 0 0 0
95 32 1 0.5564 0.10520451313277818 15.035966532284432 1.361744908153603 0 0 0
113 38 1 0.5564 8.349801743973316 18.002755097394353 3.126649544167037 0 -1 0
189 63 1 0.5564 3.31010769901838 14.396306407405008 1.0678528732530268 0 0 0
7 3 2 -1.1128 4.917273909640119 18.389321964835187 0.7756530361141971 0 -1 0
647 216 1 0.5564 2.4269285536654617 16.655815081565787 0.34067993852396705 1 0 1
281 94 1 0.5564 3.771141277838942 11.800754675572362 1.0883375180178074 0 0 0
648 216 1 0.5564 3.719579058209174 17.348107856810614 -0.035724860135646574 1 0 1
433 145 2 -1.1128 5.652625594305655 17.40883491966269 4.467203883877771 0 -1 1
94 32 2 -1.1128 1.0601882418757547 15.026441757692284 1.2973461081807292 0 0 0
524 175 1 0.5564 2.426771433467657 16.603182624687406 4.183378227154698 0 0 1
423 141 1 0.5564 1.1471737951957282 18.000974811334743 2.4164767614062552 0 0 1
202 68 2 -1.1128 4.420935589066034 12.684987110674601 4.153603676992512 0 0 0
203 68 1 0.5564 3.5417692140027 12.539080603082917 4.502902421761898 0 0 0
168 56 1 0.5564 8.595546559032314 14.695576215955459 4.385799498145435 0 0 0
499 167 2 -1.1128 0.1200501107676091 11.358045144371149 2.955802836648787 1 0 1
197 66 1 0.5564 7.143032919611111 9.706885827915132 7.850718475508262 1 0 0
402 134 1 0.5564 3.0752342489548856 17.22462576820058 6.2623159447731895 0 0 0
272 91 1 0.5564 0.9587418459171029 16.74351505996049 8.849813491789408 0 0 0
167 56 1 0.5564 9.24084699659269 13.600402380890491 5.20803840759769 0 0 0
338 113 1 0.5564 8.524940527087844 17.799365522706402 5.251455830409185 0 -1 0
337 113 2 -1.1128 7.9589516045353115 17.95390678531842 6.007766199150861 0 -1 0
339 113 1 0.5564 8.3576169747812 17.445163698448656 6.7137961083716835 0 -1 0
380 127 1 0.5564 9.466200792985534 9.31231033317941 8.960327601723904 0 0 0
400 134 2 -1.1128 3.405672611053898 16.399150082833003 5.90786959023851 0 0 0
401 134 1 0.5564 4.306087956004628 16.593148899424165 5.647392134290033 0 0 0
590 197 1 0.5564 2.4922789988008085 14.476779189480874 6.947053753202366 1 0 1
435 145 1 0.5564 6.290738820391388 17.46851297190905 5.178176368843924 0 -1 1
166 56 2 -1.1128 8.435427829218643 14.111222087063855 5.126828573083677 0 0 0
43 15 2 -1.1128 9.407233357114107 10.357129207065025 5.030408220793424 0 0 0
589 197 2 -1.1128 2.1044846540535174 13.601830246544258 6.9647098727726595 1 0 1
228 76 1 0.5564 8.374025128844988 16.163276136920704 8.380949106829268 0 -1 0
44 15 1 0.5564 8.497282499633124 10.417541426589665 4.739596189001897 0 0 0
53 18 1 0.5564 2.7752141188384583 10.895984825885662 7.734049369270489 1 0 0
49 17 2 -1.1128 1.9803298073264939 11.622948620767433 4.991979604566961 1 0 0
226 76 2 -1.1128 9.040194331892554 16.099388523196843 7.696574353442647 0 -1 0
495 165 1 0.5564 6.209775843875118 12.773775102968074 8.247517381983275 0 0 0
170 57 1 0.5564 5.433560192292029 13.410278735269015 5.762458404219043 0 0 0
293 98 1 0.5564 1.0458858131282738 18.237437343249898 5.962369223966783 0 0 0
196 66 2 -1.1128 6.779964265914944 9.846129296861893 6.976061829451363 1 0 0
273 91 1 0.5564 2.28140365502989 17.379335121909765 8.478069274494606 0 0 0
544 182 2 -1.1128 1.902584518703304 9.409194926401383 7.4356991159409285 0 0 1
227 76 1 0.5564 8.99715508586536 15.189012757622855 7.404007389252811 0 -1 0
51 17 1 0.5564 1.7962589573873657 12.392252393532864 5.530980035992768 1 0 0
271 91 2 -1.1128 1.9040911906023101 16.646057275222027 8.964043286277345 0 0 0
279 93 1 0.5564 4.481276197742184 15.009756529413718 8.876670999856264 0 0 0
169 57 2 -1.1128 6.034077669281175 13.673558984012589 6.45980631429585 0 0 0
54 18 1 0.5564 2.954588419523199 12.396800606172471 7.648773099561882 1 0 0
171 57 1 0.5564 6.885138100673822 13.748267859455183 6.028127549339638 0 0 0
591 197 1 0.5564 1.358815640281842 13.681780938556793 7.5595354466319 1 0 1
52 18 2 -1.1128 3.359630938325317 11.604940275869827 8.002509751277517 1 0 0
545 182 1 0.5564 1.2925086616678714 9.759282566375594 6.7864857935240135 0 0 1
198 66 1 0.5564 6.667781280301471 10.794501678185787 6.910972322728568 1 0 0
494 165 1 0.5564 5.100572217741135 11.92897680121977 8.837329493444505 0 0 0
493 165 2 -1.1128 6.053785370404568 11.991121465838514 8.776055079071346 0 0 0
319 107 2 -1.1128 9.773359507293733 16.53872583537498 13.147441442240206 0 0 0
229 77 2 -1.1128 7.204322777319425 16.7630497747833 9.48019494897253 0 -1 0
351 117 1 0.5564 5.998814381606312 18.123134283296416 12.641747457395645 0 -1 0
256 86 2 -1.1128 7.756244525309876 9.68701792106163 9.438733108395212 0 0 0
407 136 1 0.5564 6.341093154220811 15.440708469561034 12.70127643412398 0 0 0
397 133 2 -1.1128 2.547740196736351 11.32435883005105 10.775606766098981 0 0 0
277 93 2 -1.1128 4.515531461864623 15.7833693046767 9.439326926836435 0 0 0
399 133 1 0.5564 1.6037070259690174 11.393740288828349 10.91780176941644 0 0 0
331 111 2 -1.1128 4.570395556024803 15.829889661089963 12.351693178138945 0 -1 0
186 62 1 0.5564 9.344408382762593 9.434942424224099 13.91883566176208 0 0 -1
231 77 1 0.5564 6.345375059698368 16.365191713471695 9.338245591111008 0 -1 0
146 49 1 0.5564 4.455034358157553 9.3804402155799 12.797214458899044 0 0 0
398 133 1 0.5564 2.6436198770847144 11.266278478489422 9.824993489837164 0 0 0
513 171 1 0.5564 1.2739506311569437 18.23488363382039 12.384149591022863 0 0 0
349 117 2 -1.1128 6.700921282146139 18.01650708122487 11.999946569448953 0 -1 0
105 35 1 0.5564 6.70486789949529 13.549089538130794 11.976953907887877 0 0 -1
408 136 1 0.5564 7.807410941383445 15.817270212310827 12.698336100573156 0 0 0
406 136 2 -1.1128 7.219529165317077 15.062957834643859 12.657842780328481 0 0 0
104 35 1 0.5564 6.3062494073597275 12.690804820322297 10.795283125480244 0 0 -1
384 128 1 0.5564 3.136035764193754 12.691401490320697 11.889428120966945 0 0 0
230 77 1 0.5564 7.097042165950967 17.289368741252495 10.272477131361109 0 -1 0
596 199 1 0.5564 5.4240470285525255 11.266667342079453 13.054745162071299 0 0 0
595 199 2 -1.1128 5.250655615362588 10.74815173814065 13.840435193939912 0 0 0
103 35 2 -1.1128 6.334168391675252 12.69572097020152 11.752063248507339 0 0 -1
382 128 2 -1.1128 3.1081450149297014 13.449304805450652 12.473411435227963 0 0 0
333 111 1 0.5564 4.692810417872712 15.888307862193228 11.404152279005622 0 -1 0
439 147 2 -1.1128 3.1124064550955017 18.125225715694718 12.27200231773534 0 -1 0
383 128 1 0.5564 2.1766068107471086 13.652108665526104 12.559079518192698 0 0 0
440 147 1 0.5564 3.567695421481395 17.284739331139257 12.3222660044904 0 -1 0
332 111 1 0.5564 4.120860873208112 14.995331847449659 12.48459790467668 0 -1 0
147 49 1 0.5564 3.595109632010895 10.065223331108085 11.75630295693963 0 0 0
321 107 1 0.5564 9.806149824136718 17.451048285105877 13.435233698411183 0 0 0
258 86 1 0.5564 7.418096323504931 10.58174804357146 9.475416050883966 0 0 0
375 125 1 0.5564 0.7145231967518916 12.68598523383561 13.687300582488932 1 0 0
278 93 1 0.5564 3.6265351617389587 16.137381437430953 9.41497855139874 0 0 0
606 202 1 0.5564 9.554665639089222 11.187499936577929 11.744004161591457 0 0 0
529 177 2 -1.1128 5.797608620134197 12.556158200876633 17.280613609431473 0 0 0
413 138 1 0.5564 1.3562230960524304 15.256680491247945 15.036592873075918 1 0 0
531 177 1 0.5564 4.923279531908057 12.481913455114375 16.89816334110486 0 0 0
530 177 1 0.5564 5.736669629247387 12.085580514744104 18.111922771611948 0 0 0
614 205 1 0.5564 3.3715412631626673 13.96097085931482 14.245229334292091 0 0 0
108 36 1 0.5564 4.560432097254626 16.805155360421484 16.331496916945465 1 0 -1
638 213 1 0.5564 3.42844523028818 11.13037242577198 16.847356148303884 0 0 0
578 193 1 0.5564 4.917629262287282 10.047798667493035 15.525345557761371 0 0 0
66 22 1 0.5564 8.475935669376522 10.371587624286908 18.48655588024587 0 0 -1
6 2 1 0.5564 3.5902814771254175 18.38806398668408 17.339267296561772 0 -1 -1
637 213 2 -1.1128 2.9633809200955197 11.966485567336285 16.876713410852943 0 0 0
571 191 2 -1.1128 9.186630690058594 12.585156764669845 15.603613812276661 0 -1 0
613 205 2 -1.1128 3.151516113567647 14.388842869068469 15.072723332326147 0 0 0
107 36 1 0.5564 4.545159341849136 15.778214883577393 15.219267088149904 1 0 -1
106 36 2 -1.1128 5.110344708771928 16.42004765868132 15.649206644908482 1 0 -1
615 205 1 0.5564 2.8986859207940334 13.671586124319742 15.653973276013266 0 0 0
639 213 1 0.5564 2.1070215264062333 11.778387135803074 16.49265684636863 0 0 0
102 34 1 0.5564 6.6952653240791875 15.41381505493983 15.50699194436608 0 0 -1
100 34 2 -1.1128 7.579955433388232 15.053349206552186 15.446828602439663 0 0 -1
444 148 1 0.5564 8.239020940795697 16.489971966843797 16.279990040227457 0 -1 0
62 21 1 0.5564 8.298648897907002 11.121153202538805 15.017853423212376 0 0 -1
597 199 1 0.5564 6.11826897097314 10.542392002508828 14.188489539027978 0 0 0
61 21 2 -1.1128 7.810483777024523 10.29799966883706 15.036425406831231 0 0 -1
64 22 2 -1.1128 8.182136907313245 9.73264200340213 17.837200335168188 0 0 -1
442 148 2 -1.1128 8.652817962065035 17.350038977266053 16.352712764478234 0 -1 0
572 191 1 0.5564 9.840885209441941 12.719848824153178 16.289209106634267 0 -1 0
77 26 1 0.5564 7.204820519740192 13.579341883488476 18.221990913036592 0 0 -1
101 34 1 0.5564 7.724591681357508 14.927580006149121 14.50901502534123 0 0 -1
443 148 1 0.5564 9.018885378665976 17.514485633668222 15.483699657007996 0 -1 0
573 191 1 0.5564 8.519815213508602 13.250354980650515 15.774201880904704 0 -1 0
646 216 2 -1.1128 3.9302903001635765 16.84346951691988 18.294092379532835 1 0 0
63 21 1 0.5564 7.9194597493592305 9.974480506173933 15.930680084556613 0 0 -1
389 130 1 0.5564 9.880164785894962 16.531123770127117 17.548426350256122 0 0 -1
577 193 2 -1.1128 4.609848092802805 9.619082745836327 16.323910056739912 0 0 0
420 140 1 0.5564 2.3459922875484045 12.264562834475187 18.377555017220615 0 0 0
65 22 1 0.5564 7.280794252495642 9.531647439001068 18.089022610039308 0 0 -1
518 173 1 0.5564 0.8065047821857172 10.517860158269466 14.649032456436277 1 0 0
517 173 2 -1.1128 0.8511983283433743 11.3559837910902 15.109231439108859 1 0 0
118 40 2 -1.1128 16.038474650442524 6.302723205075101 1.1609371800431587 0 0 0
144 48 1 0.5564 13.98115463517704 2.666083179898695 3.0144161879649594 0 0 0
416 139 1 0.5564 13.770435042864023 5.753268955399754 3.2848208547143827 -1 1 0
345 115 1 0.5564 14.605475747480385 0.94898987087309 1.024910839547663 -1 0 1
343 115 2 -1.1128 14.872493800190838 0.36234092738181956 1.7325662767184784 -1 0 1
120 40 1 0.5564 16.938798145541693 6.179750117716965 0.8600599794754966 0 0 0
41 14 1 0.5564 18.127033290024418 8.522284730846179 0.6566223316488661 -1 0 0
17 6 1 0.5564 10.780263945288446 4.2543520279044955 2.697509079465076 0 0 0
119 40 1 0.5564 16.038360299329398 7.1678879113106575 1.570475777141288 0 0 0
344 115 1 0.5564 14.717247603507602 0.8648387286571232 2.5323327544712586 -1 0 1
136 46 2 -1.1128 13.017307887672597 8.48789658931558 1.6524580736513552 0 0 0
386 129 1 0.5564 15.820767769543185 8.902303658084717 3.603580980459278 0 0 0
33 11 1 0.5564 10.8220255360148 2.089153104350302 2.098849549735584 0 0 0
163 55 2 -1.1128 13.435641380107462 5.726319779060862 1.6150620009427048 0 0 0
417 139 1 0.5564 14.285122838438786 6.743596127888446 4.307681429534619 -1 1 0
40 14 2 -1.1128 18.41840184028192 7.8301517114962165 0.0630837107534651 -1 0 0
467 156 1 0.5564 17.016696779620922 3.950439649118252 0.8917408190005207 0 0 1
553 185 2 -1.1128 18.0308904651809 3.8328874162229902 2.487426287195038 0 0 1
466 156 2 -1.1128 16.794090218217647 3.4085109113332255 0.13477886507691364 0 0 1
142 48 2 -1.1128 14.009238063943533 2.0335972796672737 3.7323331378993068 0 0 0
415 139 2 -1.1128 14.11723218209774 5.810601711476217 4.1751446946990605 -1 1 0
137 46 1 0.5564 12.241206198963717 8.980315084238788 1.9197071061290554 0 0 0
482 161 1 0.5564 15.114009720720814 2.621007908386286 -0.04283964494795088 0 0 1
554 185 1 0.5564 17.537071340903083 4.377000460292118 3.100871896189968 0 0 1
46 16 2 -1.1128 17.10472263054014 9.078634490361967 2.2458643912359757 0 0 0
18 6 1 0.5564 12.219452327649496 4.365214293355842 2.241064614934352 0 0 0
138 46 1 0.5564 13.671229266792713 8.688646468854122 2.322023722362424 0 0 0
165 55 1 0.5564 13.141210879578658 6.633077223053435 1.5294264063383654 0 0 0
582 194 1 0.5564 9.73350781521687 1.7470855701047876 0.38591853500111295 0 0 1
31 11 2 -1.1128 10.571392322625977 1.1766026416360331 1.9550911203663 0 0 0
385 129 2 -1.1128 15.0296941709804 8.561802080942448 4.021304668333782 0 0 0
143 48 1 0.5564 13.135446969255291 2.0729324383435834 4.1211437653576555 0 0 0
164 55 1 0.5564 14.337337854028473 5.7354461004488435 1.2939825246890864 0 0 0
16 6 2 -1.1128 11.525371079851627 3.7276385666608505 2.4083376285615894 0 0 0
32 11 1 0.5564 9.725553385253354 1.087987791123095 2.3943356167766616 0 0 0
153 51 1 0.5564 9.747566643521635 4.234731604419485 4.580881912776289 0 0 0
468 156 1 0.5564 17.390888864754633 2.6621858832210985 0.1901157637010161 0 0 1
555 185 1 0.5564 18.761533874223982 4.385863783599366 2.210642605230142 0 0 1
411 137 1 0.5564 11.81085538273015 -0.035778906661787235 2.55886190913928 0 1 0
129 43 1 0.5564 15.93345985358445 5.151588006318044 4.728992135084043 -1 0 0
264 88 1 0.5564 10.548910111799497 7.4936835542155205 5.25445338026503 0 0 0
23 8 1 0.5564 12.068879739859455 1.4652471247275398 5.906538801963382 0 0 0
269 90 1 0.5564 13.14723833854467 4.338566150892419 7.277291018823619 0 0 0
122 41 1 0.5564 11.937469716003068 3.98867679879114 5.694444268944887 0 0 0
123 41 1 0.5564 12.623198360748717 5.256761965710519 5.2322414657841145 0 0 0
543 181 1 0.5564 18.522716367168197 7.635988394379902 5.012998085000985 -1 0 1
541 181 2 -1.1128 17.799537121054147 7.617051059205198 5.639803495665361 -1 0 1
128 43 1 0.5564 17.175240447994327 5.973810475099433 5.000702172476858 -1 0 0
121 41 2 -1.1128 12.0211220913572 4.920639286192152 5.896137210388363 0 0 0
270 90 1 0.5564 14.534787120922754 4.34865343508665 7.8826849131532395 0 0 0
308 103 1 0.5564 17.5076449846792 4.279603440176427 6.436378172899518 -1 1 0
504 168 1 0.5564 15.782991128595471 7.0000924729119625 8.265992920543804 0 0 0
24 8 1 0.5564 10.740824901673182 2.1651554000465407 6.102227252782591 0 0 0
22 8 2 -1.1128 11.580282698797605 2.247248382186954 5.649675387731098 0 0 0
307 103 2 -1.1128 17.68221851762598 3.586010929388531 7.0725270158326765 -1 1 0
503 168 1 0.5564 16.162524535697017 8.239941769762323 7.484569021210177 0 0 0
13 5 2 -1.1128 15.846406598122675 1.8008554178038547 6.302290695061411 0 0 0
309 103 1 0.5564 16.989893494311026 2.9424049758950286 6.921897346640096 -1 1 0