LAMMPS data file by xyan11@uic.edu

648 atoms
2 atom types
432 bonds
1 bond types
216 angles
1 angle types

-0.05013120983981878 18.65013120983987 xlo xhi
-0.05013120983981878 18.65013120983987 ylo yhi
-0.05013120983981878 18.65013120983987 zlo zhi

Masses

1 1.008 # H
2 15.9994 # O

Atoms # full

91 31 2 -1.1128 6.525351902593562 4.7278087713700545 2.017762144681277 0 1 0
378 126 1 0.5564 17.540030133115017 1.1836196100398122 2.9423954182345087 0 0 1
3 1 1 0.5564 3.299394857889812 8.839156221184346 2.917906108667497 0 0 0
109 37 2 -1.1128 5.352148356874053 6.816298292269122 3.902162851140631 0 0 0
48 16 1 0.5564 17.52031869729304 8.637189722884825 2.359894697421955 0 0 0
313 105 2 -1.1128 6.177720201759688 1.4364129645799186 3.9259588753648127 0 1 0
93 31 1 0.5564 7.3996548948466305 4.8367476187746075 1.6437261566053643 0 1 0
92 31 1 0.5564 5.929016999373299 4.9398520039046865 1.299706732235285 0 1 0
543 181 1 0.5564 18.57794955706262 7.652791515056606 3.838601594509326 -1 0 1
386 129 1 0.5564 15.979713028969215 8.9970266012803 5.2371253532772695 0 0 0
120 40 1 0.5564 17.354685507838 6.640844857154932 1.268828692729604 0 0 0
1 1 2 -1.1128 3.535001654295014 8.25172184843079 2.199860081685047 0 0 0
110 37 1 0.5564 5.782082707962003 6.088335171008805 3.4533849495372344 0 0 0
483 161 1 0.5564 15.019782910823364 3.7451228561840746 0.8661307337202411 0 0 1
611 204 1 0.5564 18.511259748606868 5.11694137898491 0.7954765569159314 0 0 1
39 13 1 0.5564 8.032462093077363 1.1036769978135506 0.39255604250446074 0 0 0
151 51 2 -1.1128 10.790460482633998 4.8674768314515795 3.4965562234993306 0 0 0
17 6 1 0.5564 12.789379605045122 2.9714412018420964 3.7824896908768384 0 0 0
88 30 2 -1.1128 2.1580729613804928 2.384380468672961 4.23031364279579 1 1 0
581 194 1 0.5564 10.554461352406594 2.341851904783883 0.21128929281941344 0 0 1
610 204 2 -1.1128 18.49772491770495 5.88903135202702 0.2299030289975012 0 0 1
2 1 1 0.5564 4.028642930274802 7.546701602935605 2.618718501914645 0 0 0
46 16 2 -1.1128 18.28731926962582 9.068032508373541 2.737070374330402 0 0 0
352 118 2 -1.1128 8.145457419098355 6.518748010226688 5.92897507632762 0 0 0
343 115 2 -1.1128 14.405932084063423 0.5321341299743285 0.6588468072648507 -1 0 1
75 25 1 0.5564 2.555081092148748 7.239498426940863 0.8388925387282619 0 0 0
564 188 1 0.5564 4.022380859726438 2.402224804835928 0.30814307944470865 0 0 1
33 11 1 0.5564 11.869267953932264 0.8128868357461639 3.0820480269846615 0 0 0
244 82 2 -1.1128 8.147933730867871 4.34863284344797 4.218516580545836 0 0 0
264 88 1 0.5564 11.655894376790558 7.2287336474614 5.426651822520324 0 0 0
315 105 1 0.5564 5.4731184081109285 1.6821094717856289 3.326499408264121 0 1 0
314 105 1 0.5564 6.752444168098783 2.2015392853354765 3.9472022739509827 0 1 0
35 12 1 0.5564 9.348804381154325 3.7838295692772355 0.8093992315905039 0 0 0
246 82 1 0.5564 7.446399382350136 4.708189675372341 3.6756126443767227 0 0 0
34 12 2 -1.1128 9.503235989237115 4.727322996034269 0.8557629777567237 0 0 0
89 30 1 0.5564 1.2453747640530084 2.67240366332476 4.216108681457006 1 1 0
423 141 1 0.5564 3.7512098306099464 0.7160508225864987 2.212293536347705 0 1 1
580 194 2 -1.1128 9.808955758471798 1.9822905913933058 0.6920323600172059 0 0 1
422 141 1 0.5564 3.221394506022693 1.9910329536370024 2.8331602565046503 0 1 1
421 141 2 -1.1128 3.7942749246784793 1.6692927852659152 2.137119875140984 0 1 1
468 156 1 0.5564 0.05597785626305907 3.1777712675376626 1.2885583691641356 1 0 1
376 126 2 -1.1128 17.603295996907082 0.5102065489900581 2.2651307512732655 0 0 1
575 192 1 0.5564 9.906861041773634 0.07339375120171604 2.845885104349364 0 0 1
541 181 2 -1.1128 18.539629480228644 6.830663179743036 4.327286876279912 -1 0 1
466 156 2 -1.1128 18.0446110329356 3.6286823569733615 1.7429147108417846 0 0 1
60 20 1 0.5564 13.955438559301943 5.16525927030225 0.06927623240170566 0 0 0
153 51 1 0.5564 9.866761736926891 4.84030365022484 3.745995291224818 0 0 0
119 40 1 0.5564 17.264825188672848 6.631615213812092 2.779986483790786 0 0 0
36 12 1 0.5564 10.08863359301047 4.838148185093934 1.6048998169161712 0 0 0
23 8 1 0.5564 11.428713797807111 1.595891029306619 6.020578350659662 0 0 0
90 30 1 0.5564 2.4576036067726648 2.579825599275027 5.118153781007064 1 1 0
377 126 1 0.5564 16.80449514295022 0.6140387477428626 1.7481093297224686 0 0 1
111 37 1 0.5564 5.20017621997343 6.494339657451778 4.790658755799618 0 0 0
129 43 1 0.5564 15.948436750957308 5.085467816952768 4.490146103693578 -1 0 0
144 48 1 0.5564 14.60021668528598 1.361387536050214 4.930726512167014 0 0 0
25 9 2 -1.1128 1.0637336778491358 2.1844918942748968 0.4307144279218705 0 0 0
259 87 2 -1.1128 12.802829224824228 8.713317473534095 1.5200237767814249 0 0 0
245 82 1 0.5564 8.18322290690586 4.927923332881633 4.979669718368031 0 0 0
73 25 2 -1.1128 2.406795751961562 6.751511918491012 0.0289172261885199 0 0 0
122 41 1 0.5564 12.134181502023809 4.270367161700705 5.557317897380233 0 0 0
434 145 1 0.5564 4.610847045104117 0.5612288520657159 4.712033108085799 0 0 1
123 41 1 0.5564 13.336283326523745 5.183629484737507 5.669819426149034 0 0 0
345 115 1 0.5564 15.11750596029599 0.20088651240895306 0.1110210021236985 -1 0 1
143 48 1 0.5564 14.399225442743159 0.3139120344244299 6.005042185069139 0 0 0
37 13 2 -1.1128 7.548192655721961 0.2792114354903964 0.34879407681165436 0 0 0
482 161 1 0.5564 16.22984257938395 3.2576014844032364 1.6341386208526831 0 0 1
142 48 2 -1.1128 15.042775997955163 0.638327095673585 5.375140691070672 0 0 0
31 11 2 -1.1128 11.030870685224205 1.2742631527340564 3.0621008850486677 0 0 0
262 88 2 -1.1128 11.280318856981069 7.407599219929036 4.564604534153563 0 0 0
385 129 2 -1.1128 15.120214673017665 8.844070418882534 4.844642472820619 0 0 0
363 121 1 0.5564 6.187745651929294 8.611707252166099 4.336501286433509 0 0 0
152 51 1 0.5564 11.04281648427344 5.783788211327495 3.610004207785452 0 0 0
481 161 2 -1.1128 15.293976093575298 3.0964173170985956 1.5143395160535835 0 0 1
16 6 2 -1.1128 13.668192023215454 2.5925423996883223 3.7998054172422884 0 0 0
261 87 1 0.5564 11.937413333986377 8.852830335623294 1.135611972339272 0 0 0
260 87 1 0.5564 12.762048799857258 9.15336653698226 2.3690658257609547 0 0 0
164 55 1 0.5564 14.827636923918481 6.538157501394782 1.44877310554267 0 0 0
582 194 1 0.5564 10.11312616787121 1.9236897575569412 1.5976934069248068 0 0 1
128 43 1 0.5564 17.378649253173695 5.536273562656603 4.697573743756978 -1 0 0
127 43 2 -1.1128 16.75596118941731 4.854224063013023 4.949066200296043 -1 0 0
344 115 1 0.5564 14.644171157928238 1.4417938957677698 0.8375588103773359 -1 0 1
27 9 1 0.5564 1.2776579733213398 1.4091022917611973 0.949543655620444 0 0 0
415 139 2 -1.1128 14.232504556504594 6.128027017427579 4.512396133846974 -1 1 0
553 185 2 -1.1128 18.01351037631809 2.5268197603297677 4.511617664150869 0 0 1
555 185 1 0.5564 17.411764458502276 3.2572415279921483 4.6550285731843495 0 0 1
417 139 1 0.5564 14.557174270661168 7.018823468625013 4.643753495612888 -1 1 0
467 156 1 0.5564 18.140512110503185 3.366809395788183 2.6585570299853405 0 0 1
163 55 2 -1.1128 13.99199778390468 6.161084324654668 1.723911189469116 0 0 0
263 88 1 0.5564 10.757446792217769 8.199429390722097 4.690244653499658 0 0 0
32 11 1 0.5564 10.932155046781627 1.630904814474244 3.94484733815673 0 0 0
118 40 2 -1.1128 16.81538744078621 6.949410395054085 1.9969230902090764 0 0 0
22 8 2 -1.1128 11.041686625016911 2.4065795888626056 5.690170238362888 0 0 0
165 55 1 0.5564 13.385283109553145 6.901376733157373 1.730631580002464 0 0 0
542 181 1 0.5564 0.313883298078711 7.011441937192209 5.138661716595592 0 0 1
353 118 1 0.5564 8.249450780766923 7.174252267976117 5.239283350180838 0 0 0
18 6 1 0.5564 14.105197394278882 2.964892712548255 3.0339342354445247 0 0 0
554 185 1 0.5564 17.941879387148415 1.9973980858341402 5.305822322572656 0 0 1
416 139 1 0.5564 14.050312106078955 6.074914504715293 3.57422491846148 -1 1 0
237 79 1 0.5564 8.26562982109155 3.053254965033475 5.721556497250507 0 0 0
282 94 1 0.5564 4.410509958285913 9.269781662954907 0.7208028777526583 0 0 0
612 204 1 0.5564 0.7120783243755071 6.167074884982753 0.18144636416835064 1 0 1
114 38 1 0.5564 6.953159352902356 -0.045976058840482614 4.519567986014006 0 0 0
387 129 1 0.5564 14.502567802961584 9.24657947168753 5.455112714081079 0 0 0
354 118 1 0.5564 8.641687468720122 6.868301351117891 6.669072584935915 0 0 0
222 74 1 0.5564 3.0799476745624164 6.196417447381023 10.925707739136106 0 0 0
220 74 2 -1.1128 3.655762966368347 5.7186443919886605 10.328758677244286 0 0 0
438 146 1 0.5564 4.071466917077421 2.2579358157188243 7.402875745417711 0 0 0
436 146 2 -1.1128 4.94034199183718 1.8582745732392574 7.441644467832233 0 0 0
130 44 2 -1.1128 1.5921248670343453 7.155196349119485 11.856710331524582 0 0 0
369 123 1 0.5564 5.358325446208681 6.103109375397236 10.534812449030905 0 0 0
367 123 2 -1.1128 6.271083978890136 5.82627161048706 10.45475249798355 0 0 0
13 5 2 -1.1128 17.40525161151759 1.237203443269144 6.844309281503353 0 0 0
223 75 2 -1.1128 2.6435025115614277 1.367591235879597 10.631525316670237 0 0 0
437 146 1 0.5564 4.802551865782288 1.0282392724898797 7.89796760521364 0 0 0
221 74 1 0.5564 3.07142993504183 5.12902835630314 9.852226099362019 0 0 0
225 75 1 0.5564 3.5851885951337445 1.5373307550503292 10.607112260909254 0 0 0
309 103 1 0.5564 17.397546589237805 3.0236518419843166 7.354166916166453 -1 1 0
224 75 1 0.5564 2.509122125593197 0.8764226549512083 11.442002322108435 0 0 0
485 162 1 0.5564 7.554958795152226 8.065322505963048 11.79404190746804 1 0 0
236 79 1 0.5564 8.332413424142857 2.2458689608577482 7.0003931641859785 0 0 0
486 162 1 0.5564 6.874060336193446 7.305154472895516 10.67588504035752 1 0 0
484 162 2 -1.1128 7.366020162442358 8.106089287385073 10.856590380663855 1 0 0
539 180 1 0.5564 0.1336732374208042 1.0936730163940898 9.03217553301149 1 1 0
79 27 2 -1.1128 8.0077686641519 4.456641198502637 12.106002580607226 0 1 -1
454 152 2 -1.1128 5.037934670054929 6.427837773018711 6.641619520451882 0 0 1
212 71 1 0.5564 13.303049889159134 1.2770696968859132 8.16619467722017 0 1 0
217 73 2 -1.1128 0.7258303442699837 4.719277248029071 8.837057906185404 0 0 0
551 184 1 0.5564 5.499177271367115 0.9272304224817985 12.06127387766355 0 0 0
550 184 2 -1.1128 5.243199979114723 1.6806380903463756 11.529269346409626 0 0 0
200 67 1 0.5564 1.888595596566953 2.9803164922155 7.60970207714874 0 1 0
368 123 1 0.5564 6.302318515687808 5.337319930457711 9.632483538413942 0 0 0
538 180 2 -1.1128 0.7654359689405533 1.7840302812921414 8.831030753966667 1 1 0
276 92 1 0.5564 5.718541806494226 3.4435602706755923 7.974271515021215 0 0 0
540 180 1 0.5564 1.443858425108911 1.690763691337427 9.499776285762534 1 1 0
15 5 1 0.5564 16.653393976083546 1.0200842734723345 6.293174300681363 0 0 0
249 83 1 0.5564 12.210948007097079 6.25387764085803 6.810493201926442 0 0 0
80 27 1 0.5564 7.243901984697876 4.960948747238695 11.82607456043017 0 1 -1
275 92 1 0.5564 7.006350043052141 4.1024817666998565 7.528032105257558 0 0 0
274 92 2 -1.1128 6.26942804545626 4.210830811313682 8.129183802450527 0 0 0
141 47 1 0.5564 16.672155858928104 6.940289185721381 11.845098257618742 0 0 0
393 131 1 0.5564 7.64981761187119 2.6008832924277994 9.354620672410704 0 0 0
14 5 1 0.5564 17.58370176957727 0.43433139049479375 7.333930935316423 0 0 0
392 131 1 0.5564 7.480798005086409 3.367352111857747 10.649115255219092 0 0 0
552 184 1 0.5564 6.059591144999463 1.9808108485867955 11.1297912944771 0 0 0
219 73 1 0.5564 0.03010618028813418 4.329302156860709 8.307847012015088 0 0 0
235 79 2 -1.1128 8.39952923290771 3.139967632521617 6.665340178967277 0 0 0
632 211 1 0.5564 3.2785955755209684 6.31117846195181 7.014811800374608 0 1 1
247 83 2 -1.1128 12.176607046219447 7.1908643715058025 7.002984338525921 0 0 0
455 152 1 0.5564 5.50365947934038 5.784085856605267 7.175342775781082 0 0 1
350 117 1 0.5564 7.5665156475394255 0.2647690584208279 11.005898699295496 0 0 0
456 152 1 0.5564 5.2246824082647185 7.267628499029689 7.06120617097811 0 0 1
487 163 2 -1.1128 13.892996653602754 8.592377282464387 10.783677101421636 -1 0 0
391 131 2 -1.1128 7.494627142838513 2.4796770133466235 10.2913181547807 0 0 0
568 190 2 -1.1128 14.321766596022734 0.7194992503124896 11.83531033043152 0 0 0
199 67 2 -1.1128 2.4930680543740906 3.2743715110750187 6.9282900694613625 0 1 0
131 44 1 0.5564 1.0102100329665307 7.40195511845139 11.137918449011885 0 0 0
545 182 1 0.5564 18.202516818910706 8.380630208975766 6.814351591147165 -1 0 1
356 119 1 0.5564 16.668724123183456 2.9280692000790296 11.419842702587992 0 0 0
337 113 2 -1.1128 8.748641095940416 0.34036768228741443 7.33861243725509 0 0 0
620 207 1 0.5564 9.771130065656841 6.951513609426673 9.068013870955955 0 0 0
214 72 2 -1.1128 11.411705609962107 3.5381984065328984 11.03273386100418 0 1 0
357 119 1 0.5564 15.84430233221609 3.9971311206862623 12.104816564110122 0 0 0
544 182 2 -1.1128 0.11855411335835897 7.662597837122988 6.958502417284028 0 0 1
569 190 1 0.5564 14.60858151656213 1.5731683245822743 11.511022216421146 0 0 0
252 84 1 0.5564 17.997484509017045 7.99126797397958 10.231101955753033 0 0 0
621 207 1 0.5564 9.896477454630045 8.40200601490476 8.653147590161003 0 0 0
477 159 1 0.5564 12.502041513748637 4.477302292175123 12.139575213662441 0 0 0
201 67 1 0.5564 2.537635487551539 4.223898638807198 7.040488333592924 0 1 0
504 168 1 0.5564 14.599437309792263 5.735171511309536 8.722865933760522 0 0 0
470 157 1 0.5564 12.051499928170765 9.218713294181416 10.950935029642014 -1 0 0
234 78 1 0.5564 15.288247549481865 3.9652584305474647 9.765165337136391 0 0 0
215 72 1 0.5564 10.540440155754613 3.164468360454812 11.164633036926215 0 1 0
336 112 1 0.5564 9.338414502750789 5.738457850577307 11.059240189453584 0 0 0
268 90 2 -1.1128 12.329258596775272 2.896960445036599 8.423013957154302 0 0 0
476 159 1 0.5564 13.123656026167412 5.837897526514055 11.906912868483792 0 0 0
250 84 2 -1.1128 18.46607479866592 7.362532915865065 9.682200807369073 0 0 0
325 109 2 -1.1128 18.507778899614156 3.834840611234679 11.364997930319754 -1 0 0
326 109 1 0.5564 0.3266719692522662 3.909242632998487 10.564297300695324 0 0 0
233 78 1 0.5564 15.556604020626223 4.1026041094259815 8.281629780832967 0 0 0
489 163 1 0.5564 13.945719938406233 7.889061124537982 10.136569863293705 -1 0 0
251 84 1 0.5564 17.77575641760524 6.8756059943291 9.232158343932024 0 0 0
546 182 1 0.5564 0.1628612226701668 7.571809900459699 7.910326684021624 0 0 1
232 78 2 -1.1128 14.847784541298266 3.9955740250676515 8.915900948322225 0 0 0
619 207 2 -1.1128 9.715615979148263 7.5284283039839055 8.3062627798211 0 0 0
307 103 2 -1.1128 17.166874627027994 3.9514236787180357 7.401165935736029 -1 1 0
218 73 1 0.5564 1.163319591303792 5.331122623447667 8.245090946922884 0 0 0
270 90 1 0.5564 13.164941779355246 3.348108780475253 8.542488457131908 0 0 0
502 168 2 -1.1128 14.322130730937005 6.6314374098988 8.912564149631628 0 0 0
355 119 2 -1.1128 15.765172689222625 3.190587350071566 11.595500117300395 0 0 0
602 201 1 0.5564 15.784110153952438 8.522463876463725 11.036136029041545 0 0 0
269 90 1 0.5564 12.01590962779881 3.194431403176887 7.568907012413651 0 0 0
334 112 2 -1.1128 10.200031318766014 6.125807543706575 10.905120550576612 0 0 0
335 112 1 0.5564 10.732763144437014 5.402406433012263 10.574868817699677 0 0 0
216 72 1 0.5564 11.675380778280841 3.2318980605690606 10.165074359931904 0 1 0
248 83 1 0.5564 11.352620822697888 7.308729199723338 7.475562152728525 0 0 0
327 109 1 0.5564 17.896782296380756 4.570494998084555 11.324071428774392 -1 0 0
503 168 1 0.5564 13.722353155475524 6.852914823793262 8.200249724414414 0 0 0
53 18 1 0.5564 1.9727983173167525 9.003963062883164 7.299616168126738 1 0 0
139 47 2 -1.1128 16.776816929697492 5.997201858971334 11.97082976874189 0 0 0
211 71 2 -1.1128 14.12540989975586 0.8432435292090894 7.938826960272539 0 1 0
631 211 2 -1.1128 2.35697568912862 6.146770026510426 7.214225516212468 0 1 1
633 211 1 0.5564 1.8807910412145106 6.518329887476698 6.471685096704869 0 1 1
405 135 1 0.5564 1.1772978933039568 0.303187683589551 7.702277798459982 0 1 0
601 201 2 -1.1128 16.63463519171058 8.627611466614335 11.462434295491175 0 0 0
132 44 1 0.5564 2.036843748870142 7.968468477296913 12.095436642804184 0 0 0
308 103 1 0.5564 16.91411817471637 4.181457406779314 6.507085360102628 -1 1 0
213 71 1 0.5564 14.745969844288862 1.5597702183706985 7.805895476275251 0 1 0
462 154 1 0.5564 12.754370744601562 0.11908135462772326 12.36607609036132 0 0 0
316 106 2 -1.1128 11.499776697388741 0.05170884370484782 6.734682903876457 0 1 0
570 190 1 0.5564 14.189146194553183 0.19501967169475767 11.045682388489915 0 0 0
603 201 1 0.5564 16.444694113038306 9.125863057934474 12.257321057717354 0 0 0
317 106 1 0.5564 10.55651226766351 0.004615272861778971 6.890296570439958 0 1 0
318 106 1 0.5564 11.886990174583708 0.06561649809988523 7.60992557594959 0 1 0
121 41 2 -1.1128 12.711846230864158 4.685845494607247 6.197518103528873 0 0 0
24 8 1 0.5564 10.235924190669728 2.511429554657738 6.196063741390592 0 0 0
562 188 2 -1.1128 3.568238823964654 2.7943182835638765 18.26262036287577 0 0 0
5 2 1 0.5564 4.924068516730194 0.9222008104930529 16.34914830218506 0 0 -1
585 195 1 0.5564 7.002920721160533 2.356172334208584 15.788717866170288 0 0 0
328 110 2 -1.1128 6.788576661120463 4.117606993209403 14.799223109316959 0 0 0
627 209 1 0.5564 16.336556481740708 8.711516530876851 15.835853067638872 0 0 0
57 19 1 0.5564 11.059212816294579 6.365243945953544 17.072334774761615 0 0 -1
474 158 1 0.5564 7.467307437988829 7.12196996518376 14.101975551564827 0 0 0
587 196 1 0.5564 9.914519769940778 2.243501525691464 15.859283824263501 0 0 0
360 120 1 0.5564 0.8964993221585182 5.169521260672918 14.075595873022564 1 0 0
584 195 1 0.5564 7.236792463504547 1.384164169035392 16.925494376645684 0 0 0
583 195 2 -1.1128 6.633428548648826 1.57938461608725 16.208545193959353 0 0 0
296 99 1 0.5564 4.716936435766501 2.7717405872031766 12.907060785508396 0 1 0
329 110 1 0.5564 6.464436922768292 4.875956536086909 15.285036108859689 0 0 0
97 33 2 -1.1128 2.8226016973825288 0.4536688114255114 13.610238281159118 0 1 -1
491 164 1 0.5564 18.058299998905092 7.498260482732653 14.811354889425036 -1 0 0
4 2 2 -1.1128 3.974833385798463 0.9932263213805075 16.248720638195742 0 0 -1
548 183 1 0.5564 7.517209718689356 6.928012381919411 16.41435503604152 0 0 0
240 80 1 0.5564 9.063663364460531 5.785067592848286 18.103451999633453 0 0 -1
330 110 1 0.5564 6.000188178777632 3.699361093340756 14.453261575780784 0 0 0
297 99 1 0.5564 3.5990580218195367 3.5588714911317063 13.557082659329915 0 1 0
74 25 1 0.5564 3.211548124207607 6.249464471306893 18.60073220750712 0 0 -1
473 158 1 0.5564 7.028561452922862 8.40475972676729 13.428398666282662 0 0 0
472 158 2 -1.1128 7.808632764406466 7.916185555961295 13.691006264508458 0 0 0
359 120 1 0.5564 0.8921119527284946 6.417941561307978 13.219335876951943 1 0 0
358 120 2 -1.1128 0.3379066692782973 5.896166351975117 13.79966779078123 1 0 0
547 183 2 -1.1128 6.663430859230873 6.678996319280367 16.06047667531338 0 0 0
475 159 2 -1.1128 13.080315189466178 5.12435658221782 12.543431874308292 0 0 0
176 59 1 0.5564 9.671960920374355 9.192051920442944 18.344094605188776 0 0 -1
295 99 2 -1.1128 4.54059259495184 3.395367862658528 13.611455878708487 0 1 0
28 10 2 -1.1128 9.744160411276802 3.9952390508681477 15.534147619935581 0 0 -1
549 183 1 0.5564 6.097177800524356 7.426717582388186 16.25138917380076 0 0 0
537 179 1 0.5564 13.965367993891345 8.670237637844746 16.16193452741655 0 0 0
6 2 1 0.5564 3.626681941333392 0.23295253550459655 16.714498916498606 0 0 -1
311 104 1 0.5564 0.02629014539789651 1.9332096955038625 13.799488823921145 0 1 0
458 153 1 0.5564 1.8322601578395925 2.216771213401235 13.471427603032902 0 0 0
490 164 2 -1.1128 18.071592705029655 8.398008062544637 15.137628807729337 -1 0 0
42 14 1 0.5564 1.7044411022930246 8.001467280447809 17.646203459761963 0 0 -1
457 153 2 -1.1128 1.4121974711220182 3.0680425900268373 13.594152371106237 0 0 0
175 59 2 -1.1128 10.569489299717153 8.973490670429696 18.594794746900547 0 0 -1
527 176 1 0.5564 4.295200250882525 4.634425684224758 18.35890710700027 0 1 0
528 176 1 0.5564 5.556542588512804 5.3064736467088505 17.859786735076774 0 1 0
12 4 1 0.5564 6.20666398336153 0.5512480552250311 14.68813598665596 0 0 -1
586 196 2 -1.1128 10.125965424879517 1.3226169836312238 16.012378098135194 0 0 0
59 20 1 0.5564 14.898943403038782 4.877440399637605 17.62118549304757 0 0 -1
561 187 1 0.5564 16.57326629540333 0.6062272314327258 17.442924129231 -1 0 0
607 203 2 -1.1128 5.405373528718626 9.22809016503333 16.54617930915184 1 0 0
526 176 2 -1.1128 4.953336468503907 5.285284632204663 18.602665725951415 0 1 0
625 209 2 -1.1128 15.671536387622266 8.73199524517842 16.523971045947082 0 0 0
532 178 2 -1.1128 17.481166008799313 1.9655349818905195 16.722683052610087 0 1 0
535 179 2 -1.1128 13.048225625246518 8.889503169237146 16.326109236780468 0 0 0
133 45 2 -1.1128 12.114466876098337 3.012025520258721 18.025930441951218 0 0 -1
56 19 1 0.5564 11.473503025877854 6.6651106305504255 15.647482771844553 0 0 -1
81 27 1 0.5564 7.851176530246986 4.278732276491095 13.033366496787671 0 1 -1
30 10 1 0.5564 9.243661074923153 4.774531471595676 15.292521074365725 0 0 -1
55 19 2 -1.1128 11.795035290101218 6.285782411604198 16.465350200753182 0 0 -1
364 122 2 -1.1128 10.527259408260818 7.683355871465031 13.885752777489524 0 0 0
239 80 1 0.5564 9.459635754976924 7.2260554072951 17.861547600901975 0 0 -1
310 104 2 -1.1128 18.24729576260314 1.152806391163275 14.077804579293431 -1 1 0
267 89 1 0.5564 12.73396486900834 4.871977523141976 15.583110326627066 0 0 0
238 80 2 -1.1128 9.126990070149041 6.447347664414413 17.415298267964026 0 0 -1
563 188 1 0.5564 3.7281241461673105 2.1886946418405935 17.53885467154887 0 0 0
365 122 1 0.5564 9.573088362812713 7.70538270614064 13.958203899990785 0 0 0
461 154 1 0.5564 12.158639907371349 0.25412745653299845 13.751218644722 0 0 0
67 23 2 -1.1128 15.072522090970805 2.654635648219948 15.466573269584819 0 0 -1
69 23 1 0.5564 15.497606709960232 2.58737080281373 14.61161424786533 0 0 -1
134 45 1 0.5564 11.7115942026405 3.231433046659366 17.185853143339074 0 0 -1
312 104 1 0.5564 18.011400136478045 1.3281983210026547 14.98872009815153 -1 1 0
68 23 1 0.5564 14.318991530392774 3.2252538670453808 15.315692729515444 0 0 -1
140 47 1 0.5564 17.4961244059884 5.916972517112807 12.597197401720925 0 0 0
366 122 1 0.5564 10.69340738345881 7.479977611663384 12.965313796618537 0 0 0
58 20 2 -1.1128 14.276206569842193 4.455551504071682 18.213119793221686 0 0 -1
588 196 1 0.5564 11.029714138679047 1.2305590714473678 15.710816084375342 0 0 0
265 89 2 -1.1128 12.678181653491817 4.08610853136174 15.039535436881913 0 0 0
593 198 1 0.5564 16.288997892842847 7.091720301803241 17.17757884234342 0 0 0
29 10 1 0.5564 10.637516025740819 4.18551115084236 15.24798517762176 0 0 -1
594 198 1 0.5564 17.131194337054755 5.886033849824291 17.53643748772568 0 0 0
592 198 2 -1.1128 16.355154703941015 6.1467314685583965 17.040478716926167 0 0 0
135 45 1 0.5564 12.907030149882438 3.5476756411144383 18.05916870490383 0 0 -1
642 214 1 0.5564 13.10226844353425 0.16143615949432472 18.172304050289284 0 1 0
125 42 1 0.5564 13.487389160521513 1.2653248232372398 15.315815013348333 0 0 -1
533 178 1 0.5564 18.07146112516697 2.456772099628423 17.294008586414744 0 1 0
536 179 1 0.5564 12.647925326912755 8.062290976445889 16.59379430334309 0 0 0
534 178 1 0.5564 16.760328213925277 2.569907798483741 16.545752720478426 0 1 0
124 42 2 -1.1128 12.61845330186153 0.8643673516446682 15.334861852899836 0 0 -1
99 33 1 0.5564 3.4163816128297033 0.602303486228459 14.346112932901262 0 1 -1
266 89 1 0.5564 12.914325999116324 4.384540768261668 14.161270214772102 0 0 0
126 42 1 0.5564 12.531863352145907 0.5213947683398519 16.224273969403594 0 0 -1
492 164 1 0.5564 18.570038701269237 8.350125842234313 15.95337227306512 -1 0 0
26 9 1 0.5564 1.8633891634430737 2.372637913009532 18.63972081424352 0 0 -1
40 14 2 -1.1128 1.4529350713834859 8.609376915159608 16.950958149064267 0 0 -1
10 4 2 -1.1128 6.266707280701153 0.03526815505541887 13.884182408397246 0 0 -1
459 153 1 0.5564 0.9725338392604976 3.240936706721754 12.76169589651387 0 0 0
641 214 1 0.5564 11.590036503064322 0.2196386639736564 18.211304472181187 0 1 0
460 154 2 -1.1128 11.93287886817547 0.02834170961012461 12.84887290604965 0 0 0
188 63 1 0.5564 3.965075073333871 13.81911251945943 0.5865234948491196 0 0 0
202 68 2 -1.1128 4.149680148755747 12.588481134723596 3.569271756245545 0 0 0
181 61 2 -1.1128 6.711189851258596 11.244112191094882 2.6553450272291172 0 0 0
204 68 1 0.5564 3.9876442239727607 12.791023725016494 2.6479160286823693 0 0 0
565 189 2 -1.1128 0.44084361570542213 17.425220289287743 0.08108394389338575 0 -1 1
203 68 1 0.5564 3.8333558414018745 11.691539556266399 3.6770359912205324 0 0 0
9 3 1 0.5564 5.768512628509879 18.394460937391205 0.4194647304688005 0 -1 0
191 64 1 0.5564 13.672520733271323 12.559130075839215 2.7641341408941997 0 0 0
524 175 1 0.5564 2.6363059512757516 15.018278681981 3.7272583257232674 0 0 1
388 130 2 -1.1128 10.77137964034978 15.967950830214892 1.7949570409320013 0 0 0
630 210 1 0.5564 16.330297311854512 10.825180591419274 0.47111013713637084 0 0 1
634 212 2 -1.1128 15.681257992279047 14.200271230764521 0.5759989026029365 -1 0 1
409 137 2 -1.1128 13.385179668340186 17.640564597010645 2.8065183122175603 0 0 0
183 61 1 0.5564 6.050694616081798 11.802497561377468 3.065378713915635 0 0 0
294 98 1 0.5564 0.5794045432286216 18.265208429185247 3.1588378275166913 0 0 0
280 94 2 -1.1128 4.3752512794634795 10.058417379122563 0.179517152914456 0 0 0
499 167 2 -1.1128 1.1142609752711208 11.461827255639816 2.2902734045795743 1 0 1
305 102 1 0.5564 0.2372881476983117 16.730963588983375 5.0130079842622095 1 0 0
187 63 2 -1.1128 4.862452399345328 13.518440821568452 0.7296667694952889 0 0 0
523 175 2 -1.1128 2.6911330037516477 15.757824008344295 3.1220765581375853 0 0 1
525 175 1 0.5564 2.082716363218519 16.405138241207027 3.478431525836487 0 0 1
402 134 1 0.5564 2.4366550857004543 14.041889555311926 5.985826378307938 0 0 0
389 130 1 0.5564 10.257012058855016 16.74496845832626 2.0137067089900205 0 0 0
138 46 1 0.5564 15.276017573954942 9.448204046670671 2.760888990319738 0 0 0
8 3 1 0.5564 5.193433554915413 17.175447222931172 1.10869934989692 0 -1 0
635 212 1 0.5564 15.3103449886037 13.460960888680557 1.0576846491993368 -1 0 1
509 170 1 0.5564 4.578678766771386 15.898176530926667 2.463005520554083 0 0 1
182 61 1 0.5564 7.390007537987976 11.851546720940119 2.3613979995667442 0 0 0
300 100 1 0.5564 8.863247660842841 15.078510782559002 4.2476063962403225 0 0 0
7 3 2 -1.1128 4.940935528971687 18.00218579778752 0.6976961411235522 0 -1 0
208 70 2 -1.1128 6.780305371993432 15.579162966695373 4.633775459705536 0 0 0
209 70 1 0.5564 6.079552660993483 15.336311152706518 4.028675632812872 0 0 0
508 170 2 -1.1128 5.482465990388497 15.701432565938067 2.2167623061741053 0 0 1
210 70 1 0.5564 6.978561162839813 16.490394918832305 4.4180716199911165 0 0 0
401 134 1 0.5564 3.1633656694141905 13.357918618287583 4.847479796880404 0 0 0
510 170 1 0.5564 5.410377149671324 14.969574236471479 1.6040934919386056 0 0 1
96 32 1 0.5564 1.554467712768407 13.950040120222464 0.08265684269433154 0 0 0
500 167 1 0.5564 1.3372246713946703 11.07192792604109 1.4450253525293026 1 0 1
286 96 2 -1.1128 9.148734010839167 12.573689528388108 1.5575264929349173 0 0 0
287 96 1 0.5564 9.09584204508044 13.194948740687106 2.2837602996312905 0 0 0
194 65 1 0.5564 18.568740847621353 14.507164121963315 4.500702824435025 0 0 0
501 167 1 0.5564 0.9610558302071912 12.386294622982076 2.0951732340693394 1 0 1
450 150 1 0.5564 16.960679227226592 15.393667875312763 1.4351463064533585 0 -1 1
83 28 1 0.5564 9.521616090818084 13.090152786137532 -0.031070514862628802 0 0 0
95 32 1 0.5564 1.6971968470677834 14.792754382441803 1.332142711169674 0 0 0
206 69 1 0.5564 13.111146515034346 11.984961326945854 5.382166316439762 0 0 0
576 192 1 0.5564 8.75910451188694 18.487989786334666 1.9009947372419 0 -1 1
51 17 1 0.5564 2.626117889739983 10.319214145913545 5.1091561301610495 1 0 0
433 145 2 -1.1128 3.9356263237719524 18.584055612022723 4.675505942252925 0 -1 1
43 15 2 -1.1128 9.533825195086765 9.53971549172027 5.100528909425636 0 0 0
574 192 2 -1.1128 9.2975883684843 18.084345076843018 2.5816450466594203 0 -1 1
449 150 1 0.5564 17.052557016163316 16.414565639903234 2.549184488498408 0 -1 1
362 121 1 0.5564 6.81626944611088 9.844217797537471 3.721981947911997 0 0 0
94 32 2 -1.1128 2.1954532248370318 14.236828386833835 0.7330916302160275 0 0 0
281 94 1 0.5564 5.056264095718838 10.626879329125405 0.5390286448685514 0 0 0
644 215 1 0.5564 15.942486190233662 17.531181491411214 4.8611830106524065 0 0 1
44 15 1 0.5564 8.594962267916461 9.481561204653671 4.923523114572581 0 0 0
567 189 1 0.5564 0.006604110790910202 16.893132764222383 0.7477882820197376 0 -1 1
21 7 1 0.5564 17.191302069250654 13.118603437706646 5.638552424279872 -1 0 0
410 137 1 0.5564 13.102637243393252 17.792050384656502 1.9046313836779567 0 0 0
299 100 1 0.5564 10.265866557789268 15.141506126823645 4.813691199729252 0 0 0
298 100 2 -1.1128 9.703296370105818 14.619754365389248 4.241439783538631 0 0 0
168 56 1 0.5564 6.449531813761505 14.122545527851953 5.871563049754443 0 0 0
192 64 1 0.5564 14.63211582618378 11.500153192647026 2.2646332106792206 0 0 0
390 130 1 0.5564 10.539308482820882 15.329005703173584 2.4688033336474624 0 0 0
557 186 1 0.5564 14.718178219147724 15.59262802049169 3.920416588407566 0 -1 1
288 96 1 0.5564 9.795853441444708 11.927831544685333 1.8408700208845559 0 0 0
47 16 1 0.5564 18.108549714440375 10.00344965580364 2.6410942461602014 0 0 0
45 15 1 0.5564 9.613269579741553 10.241872826320702 5.746160525932786 0 0 0
190 64 2 -1.1128 14.28689480717205 12.368053089076659 2.0554665391060745 0 0 0
207 69 1 0.5564 13.300367969502597 13.313743859823244 4.681961602281192 0 0 0