LAMMPS data file via write_data, version 23 Jun 2022, timestep = 0

648 atoms
2 atom types
432 bonds
1 bond types
216 angles
1 angle types

-9.3 9.3 xlo xhi
-9.3 9.3 ylo yhi
-37.2 37.2 zlo zhi

Masses

1 1.00794
2 15.9994

Atoms # full

458 153 1 0.5564 -1.0713570700000048 -5.453298397000001 4.718718501999998 0 0 0
350 117 1 0.5564 -1.0713570700000048 -5.453298397000001 1.6187185019999983 0 0 0
329 110 1 0.5564 -4.171357070000004 -8.553298397000002 1.6187185019999983 0 0 0
437 146 1 0.5564 -4.171357070000004 -8.553298397000002 4.718718501999998 0 0 0
545 182 1 0.5564 -4.171357070000004 -8.553298397000002 7.818718501999999 0 0 0
347 116 1 0.5564 -4.171357070000004 -5.453298397000001 1.6187185019999983 0 0 0
455 152 1 0.5564 -4.171357070000004 -5.453298397000001 4.718718501999998 0 0 0
563 188 1 0.5564 -4.171357070000004 -5.453298397000001 7.818718501999999 0 0 0
331 111 2 -1.1128 -1.564998346000003 -7.848278152000001 1.1998600819999972 0 0 0
548 183 1 0.5564 -1.0713570700000048 -8.553298397000002 7.818718501999999 0 0 0
440 147 1 0.5564 -1.0713570700000048 -8.553298397000002 4.718718501999998 0 0 0
332 111 1 0.5564 -1.0713570700000048 -8.553298397000002 1.6187185019999983 0 0 0
549 183 1 0.5564 -1.8006051420000055 -7.260843779000002 8.117906108999996 0 0 0
441 147 1 0.5564 -1.8006051420000055 -7.260843779000002 5.017906108999998 0 0 0
333 111 1 0.5564 -1.8006051420000055 -7.260843779000002 1.9179061089999987 0 0 0
439 147 2 -1.1128 -1.564998346000003 -7.848278152000001 4.299860081999999 0 0 0
547 183 2 -1.1128 -1.564998346000003 -7.848278152000001 7.3998600819999965 0 0 0
325 109 2 -1.1128 -7.764998346000004 -7.848278152000001 1.1998600819999972 0 0 0
436 146 2 -1.1128 -4.664998346000004 -7.848278152000001 4.299860081999999 0 0 0
328 110 2 -1.1128 -4.664998346000004 -7.848278152000001 1.1998600819999972 0 0 0
566 189 1 0.5564 -1.0713570700000048 -5.453298397000001 7.818718501999999 0 0 0
452 151 1 0.5564 -7.271357070000004 -5.453298397000001 4.718718501999998 0 0 0
344 115 1 0.5564 -7.271357070000004 -5.453298397000001 1.6187185019999983 0 0 0
542 181 1 0.5564 -7.271357070000004 -8.553298397000002 7.818718501999999 0 0 0
434 145 1 0.5564 -7.271357070000004 -8.553298397000002 4.718718501999998 0 0 0
326 109 1 0.5564 -7.271357070000004 -8.553298397000002 1.6187185019999983 0 0 0
433 145 2 -1.1128 -7.764998346000004 -7.848278152000001 4.299860081999999 0 0 0
541 181 2 -1.1128 -7.764998346000004 -7.848278152000001 7.3998600819999965 0 0 0
544 182 2 -1.1128 -4.664998346000004 -7.848278152000001 7.3998600819999965 0 0 0
330 110 1 0.5564 -4.900605142000005 -7.260843779000002 1.9179061089999987 0 0 0
327 109 1 0.5564 -8.000605142000005 -7.260843779000002 1.9179061089999987 0 0 0
435 145 1 0.5564 -8.000605142000005 -7.260843779000002 5.017906108999998 0 0 0
543 181 1 0.5564 -8.000605142000005 -7.260843779000002 8.117906108999996 0 0 0
560 187 1 0.5564 -7.271357070000004 -5.453298397000001 7.818718501999999 0 0 0
546 182 1 0.5564 -4.900605142000005 -7.260843779000002 8.117906108999996 0 0 0
438 146 1 0.5564 -4.900605142000005 -7.260843779000002 5.017906108999998 0 0 0
564 188 1 0.5564 -4.900605142000005 -4.160843779 8.117906108999996 0 0 0
559 187 2 -1.1128 -7.764998346000004 -4.748278152000001 7.3998600819999965 0 0 0
345 115 1 0.5564 -8.000605142000005 -4.160843779 1.9179061089999987 0 0 0
453 151 1 0.5564 -8.000605142000005 -4.160843779 5.017906108999998 0 0 0
561 187 1 0.5564 -8.000605142000005 -4.160843779 8.117906108999996 0 0 0
456 152 1 0.5564 -4.900605142000005 -4.160843779 5.017906108999998 0 0 0
348 116 1 0.5564 -4.900605142000005 -4.160843779 1.9179061089999987 0 0 0
562 188 2 -1.1128 -4.664998346000004 -4.748278152000001 7.3998600819999965 0 0 0
454 152 2 -1.1128 -4.664998346000004 -4.748278152000001 4.299860081999999 0 0 0
346 116 2 -1.1128 -4.664998346000004 -4.748278152000001 1.1998600819999972 0 0 0
579 193 1 0.5564 -8.000605142000005 -1.0608437790000025 8.117906108999996 0 0 0
470 157 1 0.5564 -7.271357070000004 -2.3532983969999997 4.718718501999998 0 0 0
362 121 1 0.5564 -7.271357070000004 -2.3532983969999997 1.6187185019999983 0 0 0
582 194 1 0.5564 -4.900605142000005 -1.0608437790000025 8.117906108999996 0 0 0
474 158 1 0.5564 -4.900605142000005 -1.0608437790000025 5.017906108999998 0 0 0
366 122 1 0.5564 -4.900605142000005 -1.0608437790000025 1.9179061089999987 0 0 0
580 194 2 -1.1128 -4.664998346000004 -1.6482781519999996 7.3998600819999965 0 0 0
472 158 2 -1.1128 -4.664998346000004 -1.6482781519999996 4.299860081999999 0 0 0
364 122 2 -1.1128 -4.664998346000004 -1.6482781519999996 1.1998600819999972 0 0 0
361 121 2 -1.1128 -7.764998346000004 -1.6482781519999996 1.1998600819999972 0 0 0
469 157 2 -1.1128 -7.764998346000004 -1.6482781519999996 4.299860081999999 0 0 0
577 193 2 -1.1128 -7.764998346000004 -1.6482781519999996 7.3998600819999965 0 0 0
363 121 1 0.5564 -8.000605142000005 -1.0608437790000025 1.9179061089999987 0 0 0
471 157 1 0.5564 -8.000605142000005 -1.0608437790000025 5.017906108999998 0 0 0
578 193 1 0.5564 -7.271357070000004 -2.3532983969999997 7.818718501999999 0 0 0
567 189 1 0.5564 -1.8006051420000055 -4.160843779 8.117906108999996 0 0 0
459 153 1 0.5564 -1.8006051420000055 -4.160843779 5.017906108999998 0 0 0
351 117 1 0.5564 -1.8006051420000055 -4.160843779 1.9179061089999987 0 0 0
365 122 1 0.5564 -4.171357070000004 -2.3532983969999997 1.6187185019999983 0 0 0
476 159 1 0.5564 -1.0713570700000048 -2.3532983969999997 4.718718501999998 0 0 0
368 123 1 0.5564 -1.0713570700000048 -2.3532983969999997 1.6187185019999983 0 0 0
585 195 1 0.5564 -1.8006051420000055 -1.0608437790000025 8.117906108999996 0 0 0
477 159 1 0.5564 -1.8006051420000055 -1.0608437790000025 5.017906108999998 0 0 0
369 123 1 0.5564 -1.8006051420000055 -1.0608437790000025 1.9179061089999987 0 0 0
583 195 2 -1.1128 -1.564998346000003 -1.6482781519999996 7.3998600819999965 0 0 0
475 159 2 -1.1128 -1.564998346000003 -1.6482781519999996 4.299860081999999 0 0 0
367 123 2 -1.1128 -1.564998346000003 -1.6482781519999996 1.1998600819999972 0 0 0
473 158 1 0.5564 -4.171357070000004 -2.3532983969999997 4.718718501999998 0 0 0
581 194 1 0.5564 -4.171357070000004 -2.3532983969999997 7.818718501999999 0 0 0
584 195 1 0.5564 -1.0713570700000048 -2.3532983969999997 7.818718501999999 0 0 0
349 117 2 -1.1128 -1.564998346000003 -4.748278152000001 1.1998600819999972 0 0 0
457 153 2 -1.1128 -1.564998346000003 -4.748278152000001 4.299860081999999 0 0 0
565 189 2 -1.1128 -1.564998346000003 -4.748278152000001 7.3998600819999965 0 0 0
343 115 2 -1.1128 -7.764998346000004 -4.748278152000001 1.1998600819999972 0 0 0
451 151 2 -1.1128 -7.764998346000004 -4.748278152000001 4.299860081999999 0 0 0
242 81 1 0.5564 -1.0713570700000048 -5.453298397000001 17.118718501999997 0 0 -1
220 74 2 -1.1128 -4.664998346000004 -7.848278152000001 16.699860081999997 0 0 -1
4 2 2 -1.1128 -4.664998346000004 -7.848278152000001 10.499860081999998 0 0 -1
112 38 2 -1.1128 -4.664998346000004 -7.848278152000001 13.599860081999996 0 0 -1
223 75 2 -1.1128 -1.564998346000003 -7.848278152000001 16.699860081999997 0 0 -1
115 39 2 -1.1128 -1.564998346000003 -7.848278152000001 13.599860081999996 0 0 -1
9 3 1 0.5564 -1.8006051420000055 -7.260843779000002 11.217906108999998 0 0 -1
117 39 1 0.5564 -1.8006051420000055 -7.260843779000002 14.317906108999997 0 0 -1
225 75 1 0.5564 -1.8006051420000055 -7.260843779000002 17.417906108999997 0 0 -1
8 3 1 0.5564 -1.0713570700000048 -8.553298397000002 10.918718501999997 0 0 -1
116 39 1 0.5564 -1.0713570700000048 -8.553298397000002 14.018718501999997 0 0 -1
224 75 1 0.5564 -1.0713570700000048 -8.553298397000002 17.118718501999997 0 0 -1
7 3 2 -1.1128 -1.564998346000003 -7.848278152000001 10.499860081999998 0 0 -1
239 80 1 0.5564 -4.171357070000004 -5.453298397000001 17.118718501999997 0 0 -1
131 44 1 0.5564 -4.171357070000004 -5.453298397000001 14.018718501999997 0 0 -1
23 8 1 0.5564 -4.171357070000004 -5.453298397000001 10.918718501999997 0 0 -1
221 74 1 0.5564 -4.171357070000004 -8.553298397000002 17.118718501999997 0 0 -1
113 38 1 0.5564 -4.171357070000004 -8.553298397000002 14.018718501999997 0 0 -1
5 2 1 0.5564 -4.171357070000004 -8.553298397000002 10.918718501999997 0 0 -1
26 9 1 0.5564 -1.0713570700000048 -5.453298397000001 10.918718501999997 0 0 -1
134 45 1 0.5564 -1.0713570700000048 -5.453298397000001 14.018718501999997 0 0 -1
1 1 2 -1.1128 -7.764998346000004 -7.848278152000001 10.499860081999998 0 0 -1
128 43 1 0.5564 -7.271357070000004 -5.453298397000001 14.018718501999997 0 0 -1
20 7 1 0.5564 -7.271357070000004 -5.453298397000001 10.918718501999997 0 0 -1
218 73 1 0.5564 -7.271357070000004 -8.553298397000002 17.118718501999997 0 0 -1
110 37 1 0.5564 -7.271357070000004 -8.553298397000002 14.018718501999997 0 0 -1
2 1 1 0.5564 -7.271357070000004 -8.553298397000002 10.918718501999997 0 0 -1
109 37 2 -1.1128 -7.764998346000004 -7.848278152000001 13.599860081999996 0 0 -1
217 73 2 -1.1128 -7.764998346000004 -7.848278152000001 16.699860081999997 0 0 -1
3 1 1 0.5564 -8.000605142000005 -7.260843779000002 11.217906108999998 0 0 -1
111 37 1 0.5564 -8.000605142000005 -7.260843779000002 14.317906108999997 0 0 -1
219 73 1 0.5564 -8.000605142000005 -7.260843779000002 17.417906108999997 0 0 -1
236 79 1 0.5564 -7.271357070000004 -5.453298397000001 17.118718501999997 0 0 -1
222 74 1 0.5564 -4.900605142000005 -7.260843779000002 17.417906108999997 0 0 -1
114 38 1 0.5564 -4.900605142000005 -7.260843779000002 14.317906108999997 0 0 -1
6 2 1 0.5564 -4.900605142000005 -7.260843779000002 11.217906108999998 0 0 -1
240 80 1 0.5564 -4.900605142000005 -4.160843779 17.417906108999997 0 0 -1
19 7 2 -1.1128 -7.764998346000004 -4.748278152000001 10.499860081999998 0 0 -1
127 43 2 -1.1128 -7.764998346000004 -4.748278152000001 13.599860081999996 0 0 -1
235 79 2 -1.1128 -7.764998346000004 -4.748278152000001 16.699860081999997 0 0 -1
21 7 1 0.5564 -8.000605142000005 -4.160843779 11.217906108999998 0 0 -1
129 43 1 0.5564 -8.000605142000005 -4.160843779 14.317906108999997 0 0 -1
237 79 1 0.5564 -8.000605142000005 -4.160843779 17.417906108999997 0 0 -1
132 44 1 0.5564 -4.900605142000005 -4.160843779 14.317906108999997 0 0 -1
24 8 1 0.5564 -4.900605142000005 -4.160843779 11.217906108999998 0 0 -1
238 80 2 -1.1128 -4.664998346000004 -4.748278152000001 16.699860081999997 0 0 -1
254 85 1 0.5564 -7.271357070000004 -2.3532983969999997 17.118718501999997 0 0 -1
147 49 1 0.5564 -8.000605142000005 -1.0608437790000025 14.317906108999997 0 0 -1
39 13 1 0.5564 -8.000605142000005 -1.0608437790000025 11.217906108999998 0 0 -1
253 85 2 -1.1128 -7.764998346000004 -1.6482781519999996 16.699860081999997 0 0 -1
145 49 2 -1.1128 -7.764998346000004 -1.6482781519999996 13.599860081999996 0 0 -1
37 13 2 -1.1128 -7.764998346000004 -1.6482781519999996 10.499860081999998 0 0 -1
40 14 2 -1.1128 -4.664998346000004 -1.6482781519999996 10.499860081999998 0 0 -1
148 50 2 -1.1128 -4.664998346000004 -1.6482781519999996 13.599860081999996 0 0 -1
256 86 2 -1.1128 -4.664998346000004 -1.6482781519999996 16.699860081999997 0 0 -1
42 14 1 0.5564 -4.900605142000005 -1.0608437790000025 11.217906108999998 0 0 -1
150 50 1 0.5564 -4.900605142000005 -1.0608437790000025 14.317906108999997 0 0 -1
258 86 1 0.5564 -4.900605142000005 -1.0608437790000025 17.417906108999997 0 0 -1
38 13 1 0.5564 -7.271357070000004 -2.3532983969999997 10.918718501999997 0 0 -1
146 49 1 0.5564 -7.271357070000004 -2.3532983969999997 14.018718501999997 0 0 -1
255 85 1 0.5564 -8.000605142000005 -1.0608437790000025 17.417906108999997 0 0 -1
260 87 1 0.5564 -1.0713570700000048 -2.3532983969999997 17.118718501999997 0 0 -1
257 86 1 0.5564 -4.171357070000004 -2.3532983969999997 17.118718501999997 0 0 -1
149 50 1 0.5564 -4.171357070000004 -2.3532983969999997 14.018718501999997 0 0 -1
43 15 2 -1.1128 -1.564998346000003 -1.6482781519999996 10.499860081999998 0 0 -1
151 51 2 -1.1128 -1.564998346000003 -1.6482781519999996 13.599860081999996 0 0 -1
259 87 2 -1.1128 -1.564998346000003 -1.6482781519999996 16.699860081999997 0 0 -1
45 15 1 0.5564 -1.8006051420000055 -1.0608437790000025 11.217906108999998 0 0 -1
153 51 1 0.5564 -1.8006051420000055 -1.0608437790000025 14.317906108999997 0 0 -1
261 87 1 0.5564 -1.8006051420000055 -1.0608437790000025 17.417906108999997 0 0 -1
44 15 1 0.5564 -1.0713570700000048 -2.3532983969999997 10.918718501999997 0 0 -1
152 51 1 0.5564 -1.0713570700000048 -2.3532983969999997 14.018718501999997 0 0 -1
41 14 1 0.5564 -4.171357070000004 -2.3532983969999997 10.918718501999997 0 0 -1
27 9 1 0.5564 -1.8006051420000055 -4.160843779 11.217906108999998 0 0 -1
135 45 1 0.5564 -1.8006051420000055 -4.160843779 14.317906108999997 0 0 -1
243 81 1 0.5564 -1.8006051420000055 -4.160843779 17.417906108999997 0 0 -1
241 81 2 -1.1128 -1.564998346000003 -4.748278152000001 16.699860081999997 0 0 -1
22 8 2 -1.1128 -4.664998346000004 -4.748278152000001 10.499860081999998 0 0 -1
133 45 2 -1.1128 -1.564998346000003 -4.748278152000001 13.599860081999996 0 0 -1
25 9 2 -1.1128 -1.564998346000003 -4.748278152000001 10.499860081999998 0 0 -1
130 44 2 -1.1128 -4.664998346000004 -4.748278152000001 13.599860081999996 0 0 -1
334 112 2 -1.1128 1.5350016539999949 -7.848278152000001 1.1998600819999972 0 0 0
552 184 1 0.5564 1.2993948579999923 -7.260843779000002 8.117906108999996 0 0 0
444 148 1 0.5564 1.2993948579999923 -7.260843779000002 5.017906108999998 0 0 0
336 112 1 0.5564 1.2993948579999923 -7.260843779000002 1.9179061089999987 0 0 0
340 114 2 -1.1128 7.735001653999998 -7.848278152000001 1.1998600819999972 0 0 0
342 114 1 0.5564 7.499394857999999 -7.260843779000002 1.9179061089999987 0 0 0
337 113 2 -1.1128 4.635001653999998 -7.848278152000001 1.1998600819999972 0 0 0
445 149 2 -1.1128 4.635001653999998 -7.848278152000001 4.299860081999999 0 0 0
553 185 2 -1.1128 4.635001653999998 -7.848278152000001 7.3998600819999965 0 0 0
556 186 2 -1.1128 7.735001653999998 -7.848278152000001 7.3998600819999965 0 0 0
448 150 2 -1.1128 7.735001653999998 -7.848278152000001 4.299860081999999 0 0 0
450 150 1 0.5564 7.499394857999999 -7.260843779000002 5.017906108999998 0 0 0
339 113 1 0.5564 4.399394857999997 -7.260843779000002 1.9179061089999987 0 0 0
447 149 1 0.5564 4.399394857999997 -7.260843779000002 5.017906108999998 0 0 0
555 185 1 0.5564 4.399394857999997 -7.260843779000002 8.117906108999996 0 0 0
335 112 1 0.5564 2.0286429299999984 -8.553298397000002 1.6187185019999983 0 0 0
443 148 1 0.5564 2.0286429299999984 -8.553298397000002 4.718718501999998 0 0 0
551 184 1 0.5564 2.0286429299999984 -8.553298397000002 7.818718501999999 0 0 0
353 118 1 0.5564 2.0286429299999984 -5.453298397000001 1.6187185019999983 0 0 0
461 154 1 0.5564 2.0286429299999984 -5.453298397000001 4.718718501999998 0 0 0
550 184 2 -1.1128 1.5350016539999949 -7.848278152000001 7.3998600819999965 0 0 0
442 148 2 -1.1128 1.5350016539999949 -7.848278152000001 4.299860081999999 0 0 0
569 190 1 0.5564 2.0286429299999984 -5.453298397000001 7.818718501999999 0 0 0
575 192 1 0.5564 8.228642929999996 -5.453298397000001 7.818718501999999 0 0 0
467 156 1 0.5564 8.228642929999996 -5.453298397000001 4.718718501999998 0 0 0
338 113 1 0.5564 5.128642929999998 -8.553298397000002 1.6187185019999983 0 0 0
446 149 1 0.5564 5.128642929999998 -8.553298397000002 4.718718501999998 0 0 0
554 185 1 0.5564 5.128642929999998 -8.553298397000002 7.818718501999999 0 0 0
356 119 1 0.5564 5.128642929999998 -5.453298397000001 1.6187185019999983 0 0 0
464 155 1 0.5564 5.128642929999998 -5.453298397000001 4.718718501999998 0 0 0
572 191 1 0.5564 5.128642929999998 -5.453298397000001 7.818718501999999 0 0 0
359 120 1 0.5564 8.228642929999996 -5.453298397000001 1.6187185019999983 0 0 0
557 186 1 0.5564 8.228642929999996 -8.553298397000002 7.818718501999999 0 0 0
449 150 1 0.5564 8.228642929999996 -8.553298397000002 4.718718501999998 0 0 0
341 114 1 0.5564 8.228642929999996 -8.553298397000002 1.6187185019999983 0 0 0
558 186 1 0.5564 7.499394857999999 -7.260843779000002 8.117906108999996 0 0 0
570 190 1 0.5564 1.2993948579999923 -4.160843779 8.117906108999996 0 0 0
462 154 1 0.5564 1.2993948579999923 -4.160843779 5.017906108999998 0 0 0
354 118 1 0.5564 1.2993948579999923 -4.160843779 1.9179061089999987 0 0 0
357 119 1 0.5564 4.399394857999997 -4.160843779 1.9179061089999987 0 0 0
465 155 1 0.5564 4.399394857999997 -4.160843779 5.017906108999998 0 0 0
573 191 1 0.5564 4.399394857999997 -4.160843779 8.117906108999996 0 0 0
352 118 2 -1.1128 1.5350016539999949 -4.748278152000001 1.1998600819999972 0 0 0
587 196 1 0.5564 2.0286429299999984 -2.3532983969999997 7.818718501999999 0 0 0
588 196 1 0.5564 1.2993948579999923 -1.0608437790000025 8.117906108999996 0 0 0
480 160 1 0.5564 1.2993948579999923 -1.0608437790000025 5.017906108999998 0 0 0
372 124 1 0.5564 1.2993948579999923 -1.0608437790000025 1.9179061089999987 0 0 0
586 196 2 -1.1128 1.5350016539999949 -1.6482781519999996 7.3998600819999965 0 0 0
478 160 2 -1.1128 1.5350016539999949 -1.6482781519999996 4.299860081999999 0 0 0
370 124 2 -1.1128 1.5350016539999949 -1.6482781519999996 1.1998600819999972 0 0 0
373 125 2 -1.1128 4.635001653999998 -1.6482781519999996 1.1998600819999972 0 0 0
481 161 2 -1.1128 4.635001653999998 -1.6482781519999996 4.299860081999999 0 0 0
589 197 2 -1.1128 4.635001653999998 -1.6482781519999996 7.3998600819999965 0 0 0
375 125 1 0.5564 4.399394857999997 -1.0608437790000025 1.9179061089999987 0 0 0
483 161 1 0.5564 4.399394857999997 -1.0608437790000025 5.017906108999998 0 0 0
591 197 1 0.5564 4.399394857999997 -1.0608437790000025 8.117906108999996 0 0 0
371 124 1 0.5564 2.0286429299999984 -2.3532983969999997 1.6187185019999983 0 0 0
479 160 1 0.5564 2.0286429299999984 -2.3532983969999997 4.718718501999998 0 0 0
576 192 1 0.5564 7.499394857999999 -4.160843779 8.117906108999996 0 0 0
468 156 1 0.5564 7.499394857999999 -4.160843779 5.017906108999998 0 0 0
360 120 1 0.5564 7.499394857999999 -4.160843779 1.9179061089999987 0 0 0
358 120 2 -1.1128 7.735001653999998 -4.748278152000001 1.1998600819999972 0 0 0
466 156 2 -1.1128 7.735001653999998 -4.748278152000001 4.299860081999999 0 0 0
574 192 2 -1.1128 7.735001653999998 -4.748278152000001 7.3998600819999965 0 0 0
374 125 1 0.5564 5.128642929999998 -2.3532983969999997 1.6187185019999983 0 0 0
593 198 1 0.5564 8.228642929999996 -2.3532983969999997 7.818718501999999 0 0 0
485 162 1 0.5564 8.228642929999996 -2.3532983969999997 4.718718501999998 0 0 0
377 126 1 0.5564 8.228642929999996 -2.3532983969999997 1.6187185019999983 0 0 0
594 198 1 0.5564 7.499394857999999 -1.0608437790000025 8.117906108999996 0 0 0
486 162 1 0.5564 7.499394857999999 -1.0608437790000025 5.017906108999998 0 0 0
378 126 1 0.5564 7.499394857999999 -1.0608437790000025 1.9179061089999987 0 0 0
592 198 2 -1.1128 7.735001653999998 -1.6482781519999996 7.3998600819999965 0 0 0
484 162 2 -1.1128 7.735001653999998 -1.6482781519999996 4.299860081999999 0 0 0
376 126 2 -1.1128 7.735001653999998 -1.6482781519999996 1.1998600819999972 0 0 0
482 161 1 0.5564 5.128642929999998 -2.3532983969999997 4.718718501999998 0 0 0
590 197 1 0.5564 5.128642929999998 -2.3532983969999997 7.818718501999999 0 0 0
568 190 2 -1.1128 1.5350016539999949 -4.748278152000001 7.3998600819999965 0 0 0
460 154 2 -1.1128 1.5350016539999949 -4.748278152000001 4.299860081999999 0 0 0
355 119 2 -1.1128 4.635001653999998 -4.748278152000001 1.1998600819999972 0 0 0
463 155 2 -1.1128 4.635001653999998 -4.748278152000001 4.299860081999999 0 0 0
571 191 2 -1.1128 4.635001653999998 -4.748278152000001 7.3998600819999965 0 0 0
245 82 1 0.5564 2.0286429299999984 -5.453298397000001 17.118718501999997 0 0 -1
118 40 2 -1.1128 1.5350016539999949 -7.848278152000001 13.599860081999996 0 0 -1
226 76 2 -1.1128 1.5350016539999949 -7.848278152000001 16.699860081999997 0 0 -1
251 84 1 0.5564 8.228642929999996 -5.453298397000001 17.118718501999997 0 0 -1
137 46 1 0.5564 2.0286429299999984 -5.453298397000001 14.018718501999997 0 0 -1
29 10 1 0.5564 2.0286429299999984 -5.453298397000001 10.918718501999997 0 0 -1
227 76 1 0.5564 2.0286429299999984 -8.553298397000002 17.118718501999997 0 0 -1
119 40 1 0.5564 2.0286429299999984 -8.553298397000002 14.018718501999997 0 0 -1
11 4 1 0.5564 2.0286429299999984 -8.553298397000002 10.918718501999997 0 0 -1
231 77 1 0.5564 4.399394857999997 -7.260843779000002 17.417906108999997 0 0 -1
123 41 1 0.5564 4.399394857999997 -7.260843779000002 14.317906108999997 0 0 -1
15 5 1 0.5564 4.399394857999997 -7.260843779000002 11.217906108999998 0 0 -1
143 48 1 0.5564 8.228642929999996 -5.453298397000001 14.018718501999997 0 0 -1
14 5 1 0.5564 5.128642929999998 -8.553298397000002 10.918718501999997 0 0 -1
122 41 1 0.5564 5.128642929999998 -8.553298397000002 14.018718501999997 0 0 -1
229 77 2 -1.1128 4.635001653999998 -7.848278152000001 16.699860081999997 0 0 -1
121 41 2 -1.1128 4.635001653999998 -7.848278152000001 13.599860081999996 0 0 -1
13 5 2 -1.1128 4.635001653999998 -7.848278152000001 10.499860081999998 0 0 -1
230 77 1 0.5564 5.128642929999998 -8.553298397000002 17.118718501999997 0 0 -1
12 4 1 0.5564 1.2993948579999923 -7.260843779000002 11.217906108999998 0 0 -1
120 40 1 0.5564 1.2993948579999923 -7.260843779000002 14.317906108999997 0 0 -1
228 76 1 0.5564 1.2993948579999923 -7.260843779000002 17.417906108999997 0 0 -1
10 4 2 -1.1128 1.5350016539999949 -7.848278152000001 10.499860081999998 0 0 -1
16 6 2 -1.1128 7.735001653999998 -7.848278152000001 10.499860081999998 0 0 -1
18 6 1 0.5564 7.499394857999999 -7.260843779000002 11.217906108999998 0 0 -1
232 78 2 -1.1128 7.735001653999998 -7.848278152000001 16.699860081999997 0 0 -1
124 42 2 -1.1128 7.735001653999998 -7.848278152000001 13.599860081999996 0 0 -1
126 42 1 0.5564 7.499394857999999 -7.260843779000002 14.317906108999997 0 0 -1
234 78 1 0.5564 7.499394857999999 -7.260843779000002 17.417906108999997 0 0 -1
17 6 1 0.5564 8.228642929999996 -8.553298397000002 10.918718501999997 0 0 -1
125 42 1 0.5564 8.228642929999996 -8.553298397000002 14.018718501999997 0 0 -1
233 78 1 0.5564 8.228642929999996 -8.553298397000002 17.118718501999997 0 0 -1
35 12 1 0.5564 8.228642929999996 -5.453298397000001 10.918718501999997 0 0 -1
248 83 1 0.5564 5.128642929999998 -5.453298397000001 17.118718501999997 0 0 -1
140 47 1 0.5564 5.128642929999998 -5.453298397000001 14.018718501999997 0 0 -1
32 11 1 0.5564 5.128642929999998 -5.453298397000001 10.918718501999997 0 0 -1
155 52 1 0.5564 2.0286429299999984 -2.3532983969999997 14.018718501999997 0 0 -1
47 16 1 0.5564 2.0286429299999984 -2.3532983969999997 10.918718501999997 0 0 -1
267 89 1 0.5564 4.399394857999997 -1.0608437790000025 17.417906108999997 0 0 -1
159 53 1 0.5564 4.399394857999997 -1.0608437790000025 14.317906108999997 0 0 -1
51 17 1 0.5564 4.399394857999997 -1.0608437790000025 11.217906108999998 0 0 -1
265 89 2 -1.1128 4.635001653999998 -1.6482781519999996 16.699860081999997 0 0 -1
157 53 2 -1.1128 4.635001653999998 -1.6482781519999996 13.599860081999996 0 0 -1
49 17 2 -1.1128 4.635001653999998 -1.6482781519999996 10.499860081999998 0 0 -1
46 16 2 -1.1128 1.5350016539999949 -1.6482781519999996 10.499860081999998 0 0 -1
154 52 2 -1.1128 1.5350016539999949 -1.6482781519999996 13.599860081999996 0 0 -1
262 88 2 -1.1128 1.5350016539999949 -1.6482781519999996 16.699860081999997 0 0 -1
48 16 1 0.5564 1.2993948579999923 -1.0608437790000025 11.217906108999998 0 0 -1
156 52 1 0.5564 1.2993948579999923 -1.0608437790000025 14.317906108999997 0 0 -1
264 88 1 0.5564 1.2993948579999923 -1.0608437790000025 17.417906108999997 0 0 -1
263 88 1 0.5564 2.0286429299999984 -2.3532983969999997 17.118718501999997 0 0 -1
249 83 1 0.5564 4.399394857999997 -4.160843779 17.417906108999997 0 0 -1
141 47 1 0.5564 4.399394857999997 -4.160843779 14.317906108999997 0 0 -1
33 11 1 0.5564 4.399394857999997 -4.160843779 11.217906108999998 0 0 -1
244 82 2 -1.1128 1.5350016539999949 -4.748278152000001 16.699860081999997 0 0 -1
30 10 1 0.5564 1.2993948579999923 -4.160843779 11.217906108999998 0 0 -1
138 46 1 0.5564 1.2993948579999923 -4.160843779 14.317906108999997 0 0 -1
246 82 1 0.5564 1.2993948579999923 -4.160843779 17.417906108999997 0 0 -1
266 89 1 0.5564 5.128642929999998 -2.3532983969999997 17.118718501999997 0 0 -1
158 53 1 0.5564 5.128642929999998 -2.3532983969999997 14.018718501999997 0 0 -1
52 18 2 -1.1128 7.735001653999998 -1.6482781519999996 10.499860081999998 0 0 -1
160 54 2 -1.1128 7.735001653999998 -1.6482781519999996 13.599860081999996 0 0 -1
268 90 2 -1.1128 7.735001653999998 -1.6482781519999996 16.699860081999997 0 0 -1
54 18 1 0.5564 7.499394857999999 -1.0608437790000025 11.217906108999998 0 0 -1
162 54 1 0.5564 7.499394857999999 -1.0608437790000025 14.317906108999997 0 0 -1
270 90 1 0.5564 7.499394857999999 -1.0608437790000025 17.417906108999997 0 0 -1
53 18 1 0.5564 8.228642929999996 -2.3532983969999997 10.918718501999997 0 0 -1
161 54 1 0.5564 8.228642929999996 -2.3532983969999997 14.018718501999997 0 0 -1
269 90 1 0.5564 8.228642929999996 -2.3532983969999997 17.118718501999997 0 0 -1
50 17 1 0.5564 5.128642929999998 -2.3532983969999997 10.918718501999997 0 0 -1
250 84 2 -1.1128 7.735001653999998 -4.748278152000001 16.699860081999997 0 0 -1
142 48 2 -1.1128 7.735001653999998 -4.748278152000001 13.599860081999996 0 0 -1
34 12 2 -1.1128 7.735001653999998 -4.748278152000001 10.499860081999998 0 0 -1
36 12 1 0.5564 7.499394857999999 -4.160843779 11.217906108999998 0 0 -1
144 48 1 0.5564 7.499394857999999 -4.160843779 14.317906108999997 0 0 -1
252 84 1 0.5564 7.499394857999999 -4.160843779 17.417906108999997 0 0 -1
28 10 2 -1.1128 1.5350016539999949 -4.748278152000001 10.499860081999998 0 0 -1
247 83 2 -1.1128 4.635001653999998 -4.748278152000001 16.699860081999997 0 0 -1
139 47 2 -1.1128 4.635001653999998 -4.748278152000001 13.599860081999996 0 0 -1
31 11 2 -1.1128 4.635001653999998 -4.748278152000001 10.499860081999998 0 0 -1
136 46 2 -1.1128 1.5350016539999949 -4.748278152000001 13.599860081999996 0 0 -1
487 163 2 -1.1128 -7.764998346000004 1.4517218479999983 4.299860081999999 0 0 0
595 199 2 -1.1128 -7.764998346000004 1.4517218479999983 7.3998600819999965 0 0 0
383 128 1 0.5564 -4.171357070000004 0.7467016029999982 1.6187185019999983 0 0 0
381 127 1 0.5564 -8.000605142000005 2.039156220999999 1.9179061089999987 0 0 0
489 163 1 0.5564 -8.000605142000005 2.039156220999999 5.017906108999998 0 0 0
597 199 1 0.5564 -8.000605142000005 2.039156220999999 8.117906108999996 0 0 0
379 127 2 -1.1128 -7.764998346000004 1.4517218479999983 1.1998600819999972 0 0 0
506 169 1 0.5564 -7.271357070000004 3.8467016029999996 4.718718501999998 0 0 0
398 133 1 0.5564 -7.271357070000004 3.8467016029999996 1.6187185019999983 0 0 0
596 199 1 0.5564 -7.271357070000004 0.7467016029999982 7.818718501999999 0 0 0
488 163 1 0.5564 -7.271357070000004 0.7467016029999982 4.718718501999998 0 0 0
380 127 1 0.5564 -7.271357070000004 0.7467016029999982 1.6187185019999983 0 0 0
382 128 2 -1.1128 -4.664998346000004 1.4517218479999983 1.1998600819999972 0 0 0
490 164 2 -1.1128 -4.664998346000004 1.4517218479999983 4.299860081999999 0 0 0
598 200 2 -1.1128 -4.664998346000004 1.4517218479999983 7.3998600819999965 0 0 0
602 201 1 0.5564 -1.0713570700000048 0.7467016029999982 7.818718501999999 0 0 0
494 165 1 0.5564 -1.0713570700000048 0.7467016029999982 4.718718501999998 0 0 0
386 129 1 0.5564 -1.0713570700000048 0.7467016029999982 1.6187185019999983 0 0 0
384 128 1 0.5564 -4.900605142000005 2.039156220999999 1.9179061089999987 0 0 0
492 164 1 0.5564 -4.900605142000005 2.039156220999999 5.017906108999998 0 0 0
600 200 1 0.5564 -4.900605142000005 2.039156220999999 8.117906108999996 0 0 0
614 205 1 0.5564 -7.271357070000004 3.8467016029999996 7.818718501999999 0 0 0
491 164 1 0.5564 -4.171357070000004 0.7467016029999982 4.718718501999998 0 0 0
599 200 1 0.5564 -4.171357070000004 0.7467016029999982 7.818718501999999 0 0 0
401 134 1 0.5564 -4.171357070000004 3.8467016029999996 1.6187185019999983 0 0 0
509 170 1 0.5564 -4.171357070000004 3.8467016029999996 4.718718501999998 0 0 0
617 206 1 0.5564 -4.171357070000004 3.8467016029999996 7.818718501999999 0 0 0
385 129 2 -1.1128 -1.564998346000003 1.4517218479999983 1.1998600819999972 0 0 0
620 207 1 0.5564 -1.0713570700000048 3.8467016029999996 7.818718501999999 0 0 0
512 171 1 0.5564 -1.0713570700000048 3.8467016029999996 4.718718501999998 0 0 0
404 135 1 0.5564 -1.0713570700000048 3.8467016029999996 1.6187185019999983 0 0 0
493 165 2 -1.1128 -1.564998346000003 1.4517218479999983 4.299860081999999 0 0 0
601 201 2 -1.1128 -1.564998346000003 1.4517218479999983 7.3998600819999965 0 0 0
387 129 1 0.5564 -1.8006051420000055 2.039156220999999 1.9179061089999987 0 0 0
495 165 1 0.5564 -1.8006051420000055 2.039156220999999 5.017906108999998 0 0 0
603 201 1 0.5564 -1.8006051420000055 2.039156220999999 8.117906108999996 0 0 0
403 135 2 -1.1128 -1.564998346000003 4.551721848 1.1998600819999972 0 0 0
511 171 2 -1.1128 -1.564998346000003 4.551721848 4.299860081999999 0 0 0
619 207 2 -1.1128 -1.564998346000003 4.551721848 7.3998600819999965 0 0 0
405 135 1 0.5564 -1.8006051420000055 5.139156221 1.9179061089999987 0 0 0
513 171 1 0.5564 -1.8006051420000055 5.139156221 5.017906108999998 0 0 0
621 207 1 0.5564 -1.8006051420000055 5.139156221 8.117906108999996 0 0 0
419 140 1 0.5564 -4.171357070000004 6.946701603000001 1.6187185019999983 0 0 0
527 176 1 0.5564 -4.171357070000004 6.946701603000001 4.718718501999998 0 0 0
635 212 1 0.5564 -4.171357070000004 6.946701603000001 7.818718501999999 0 0 0
421 141 2 -1.1128 -1.564998346000003 7.651721848000001 1.1998600819999972 0 0 0
529 177 2 -1.1128 -1.564998346000003 7.651721848000001 4.299860081999999 0 0 0
637 213 2 -1.1128 -1.564998346000003 7.651721848000001 7.3998600819999965 0 0 0
423 141 1 0.5564 -1.8006051420000055 8.239156221000002 1.9179061089999987 0 0 0
531 177 1 0.5564 -1.8006051420000055 8.239156221000002 5.017906108999998 0 0 0
639 213 1 0.5564 -1.8006051420000055 8.239156221000002 8.117906108999996 0 0 0